
                                 *****************
                                 * O   R   C   A *
                                 *****************

                                            #,                                       
                                            ###                                      
                                            ####                                     
                                            #####                                    
                                            ######                                   
                                           ########,                                 
                                     ,,################,,,,,                         
                               ,,#################################,,                 
                          ,,##########################################,,             
                       ,#########################################, ''#####,          
                    ,#############################################,,   '####,        
                  ,##################################################,,,,####,       
                ,###########''''           ''''###############################       
              ,#####''   ,,,,##########,,,,          '''####'''          '####       
            ,##' ,,,,###########################,,,                        '##       
           ' ,,###''''                  '''############,,,                           
         ,,##''                                '''############,,,,        ,,,,,,###''
      ,#''                                            '''#######################'''  
     '                                                          ''''####''''         
             ,#######,   #######,   ,#######,      ##                                
            ,#'     '#,  ##    ##  ,#'     '#,    #''#        ,####,    ,#,          
            ##       ##  ##   ,#'  ##            #'  '#       #'       ,# #          
            ##       ##  #######   ##           ,######,      #####,      #          
            '#,     ,#'  ##    ##  '#,     ,#' ,#      #,     #,   #      #          
             '#######'   ##     ##  '#######'  #'      '#     '####' #    #          



                #########################################################
                #                        -***-                          #
                #          Department of theory and spectroscopy        #
                #                                                       #
                #                      Frank Neese                      #
                #                                                       #
                #     Directorship, Architecture, Infrastructure        #
                #                    SHARK, DRIVERS                     #
                #        Core code/Algorithms in most modules           #
                #                                                       #
                #        Max Planck Institute fuer Kohlenforschung      #
                #                Kaiser Wilhelm Platz 1                 #
                #                 D-45470 Muelheim/Ruhr                 #
                #                      Germany                          #
                #                                                       #
                #                  All rights reserved                  #
                #                        -***-                          #
                #########################################################


                         Program Version 6.1.1  -  RELEASE   -
                                (GIT: $487d211c$)
                          ($2025-11-21 10:33:24 +0100$)
                                                                         
                                  - NO-DMRG VERSION -                    
                                                                         


 With contributions from (in alphabetic order):
[Max-Planck-Institut fuer Kohlenforschung]                               
  Daniel Aravena         : Magnetic Suceptibility                        
  Michael Atanasov       : Ab Initio Ligand Field Theory (pilot matlab implementation)
  Alexander A. Auer      : GIAO ZORA, VPT2 properties, NMR spectrum      
  Ute Becker             : All parallelization in ORCA, NUMFREQ, NUMCALC 
  Giovanni Bistoni       : ED, misc. LED, open-shell LED, HFLD           
  Dmytro Bykov           : pre 5.0 version of the SCF Hessian            
  Marcos Casanova-Páez   : Triplet and SCS-CIS(D). UHF-(DLPNO)-IP/EA/STEOM-CCSD. UHF-CVS-IP/STEOM-CCSD   
  Vijay G. Chilkuri      : MRCI spin determinant printing, contributions to CSF-ICE 
  Pauline Colinet        : FMM embedding                                 
  Dipayan Datta          : RHF DLPNO-CCSD density                        
  Achintya Kumar Dutta   : EOM-CC, STEOM-CC                              
  Nicolas Foglia         : Exact transition moments, OPA infrastructure, MCD improvements    
  Dmitry Ganyushin       : Spin-Orbit,Spin-Spin,Magnetic field MRCI      
  Miquel Garcia-Rates    : C-PCM and meta-GGA Hessian, CCSD/C-PCM, Gaussian charge scheme 
  Tiago L. C. Gouveia    : GS-ROHF, GS-ROCIS                             
  Yang Guo               : DLPNO-NEVPT2, F12-NEVPT2, CIM, IAO-localization        
  Andreas Hansen         : Spin unrestricted coupled pair/coupled cluster methods 
  Ingolf Harden          : AUTO-CI MPn and infrastructure                
  Benjamin Helmich-Paris : MC-RPA, TRAH-(SCF,CASSCF), AVAS, COSX integrals, SCF dyn. polar., MC-PDFT, srDFT 
  Lee Huntington         : MR-EOM, pCC                                   
  Robert Izsak           : Overlap fitted RIJCOSX, COSX-SCS-MP3, EOM     
  Riya Kayal             : Wick's Theorem for AUTO-CI, AUTO-CI UHF-CCSDT 
  Emily Kempfer          : AUTO-CI RHF CISDT and CCSDT, approximate NEVPT4
  Christian Kollmar      : KDIIS, OOCD, Brueckner-CCSD(T), CCSD density, CASPT2, CASPT2-K, improved NEVPT2 
  Axel Koslowski         : Symmetry handling                             
  Simone Kossmann        : meta-GGA functionals, TD-DFT gradient, OOMP2, (MP2 Hessian; deprecated post 5.0) 
  Lucas Lang             : DCDCAS, Hyperfine gauge corrections, ICE-SOC+SSC
  Marvin Lechner         : AUTO-CI (C++ implementation), FIC-MRCC        
  Spencer Leger          : CASSCF response                               
  Dagmar Lenk            : GEPOL surface, SMD, ORCA-2-JSON               
  Dimitrios Liakos       : Extrapolation schemes; Compound Job, Property file
  Dimitrios Manganas     : Further ROCIS development; embedding schemes. LFT, Crystal Embedding 
  Dimitrios Pantazis     : SARC Basis sets                               
  Anastasios Papadopoulos: AUTO-CI, single reference methods and gradients 
  Taras Petrenko         : pre 6.0 DFT Hessian and TD-DFT gradient,  ECA, NRVS 
  Petra Pikulova         : Analytic Raman intensities                    
  Peter Pinski           : DLPNO-MP2, DLPNO-MP2 Gradient                 
  Shashank Vittal Rao    : ES-AILFT, MagRelax                            
  Christoph Reimann      : Effective Core Potentials                     
  Marius Retegan         : Local ZFS, SOC                                
  Christoph Riplinger    : Optimizer, TS searches, QM/MM, DLPNO-CCSD(T), (RO)-DLPNO pert. Triples 
  Michael Roemelt        : Original ROCIS implementation, recursive CI coupling coefficients
  Masaaki Saitow         : Open-shell DLPNO-CCSD energy and density      
  Barbara Sandhoefer     : DKH picture change effects                    
  Yorick L. A. Schmerwitz: GMF and freeze-and-release deltaSCF, NEB S-IDPP initial path                    
  Kantharuban Sivalingam : CASSCF convergence/infrastructure, NEVPT2, NEVPT3, NEVPT4(SD), FIC-MRCI and CEPA variants
  Bernardo de Souza      : ESD, SOC TD-DFT                               
  Georgi L. Stoychev     : AutoAux, RI-MP2 NMR, DLPNO-MP2 response, X2C  
  Van Anh Tran           : RI-MP2 g-tensors                              
  Willem Van den Heuvel  : Paramagnetic NMR                              
  Zikuan Wang            : NOTCH, Electric field optimization            
  Frank Wennmohs         : Technical directorship and infrastructure     
  Hang Xu                : AUTO-CI-Response properties                   
                                                                         
[FACCTs GmbH]                                                            
  Markus Bursch, Nicolas Foglia, Miquel Garcia-Rates, Ingolf Harden, Hagen Neugebauer, Anastasios Papadopoulos, 
  Christoph Riplinger, Bernardo de Souza, Georgi L. Stoychev                                                    
                                                                 
  APM, various basis sets, CI-OPT, improved COSX, DLPNO-Multilevel,           
  DOCKER, DRACO, updates on ESD, Fragmentator, GOAT, IRC, LR-CPCM, L-BFGS, MBIS, meta-GGA TD-DFT gradient, ML-optimized integration grids, 
  MM, NACMEs, nearIR, NEB, NEB-TS, NL-DFT gradient (VV10), 2- and 3-layer-ONIOM, interface openCOSMO-RS, QMMM,   
  Crystal-QMMM, RESP, rigid body optimization, SF, symmetry and pop. for TD-DFT, various functionals, SOLVATOR                                   
                                                                         
[Other institutions]                                                     
  V. Asgeirsson          : NEB                                           
  Christoph Bannwarth    : sTDA-DFT, sTD-DFT, PBEh-3c, B97-3c, D3        
  Giovanni Bistoni       : ETS/NOCV, ADLD/ADEX, COVALED                  
  Martin Brehm           : Molecular dynamics                            
  Ronald Cardenas        : ETS/NOCV                                      
  Martina Colucci        : COVALED                                       
  Sebastian Ehlert       : rSCAN, r2SCAN, r2SCAN-3c, D4, dhf basis sets  
  Marvin Friede          : D4 for Fr, Ra, Ac-Lr                          
  Lars Goerigk           : TD-DFT with DH, B97 family of functionals     
  Stefan Grimme          : VdW corrections, initial TS optimization, DFT functionals, gCP, sTDA/sTD-DF 
  Waldemar Hujo          : DFT-NL                                        
  H. Jonsson             : NEB                                           
  Holger Kruse           : gCP                                           
  Marcel Mueller         : wB97X-3c, vDZP basis set                      
  Hagen Neugebauer       : wr2SCAN, Native XTB                           
  Gianluca Regni         : ADLD/ADEX                                     
  Tobias Risthaus        : pre 6.0 range-separated hybrid DFT and stability analysis
  Lukas Wittmann         : regularized MP2, r2SCAN double-hybrids, wr2SCAN        
                                                                         
We gratefully acknowledge several colleagues who have allowed us to      
interface, adapt or use parts of their codes:                            
  Ed Valeev, F. Pavosevic, A. Kumar             : LibInt (2-el integral package), F12 methods 
  Garnet Chan, S. Sharma, J. Yang, R. Olivares  : DMRG                   
  Ulf Ekstrom                                   : XCFun DFT Library      
  Mihaly Kallay                                 : mrcc  (arbitrary order and MRCC methods)
  Frank Weinhold                                : gennbo (NPA and NBO analysis)           
  Simon Mueller                                 : openCOSMO-RS                            
  Christopher J. Cramer and Donald G. Truhlar   : smd solvation model                     
  S Lehtola, MJT Oliveira, MAL Marques          : LibXC Library                           
  Liviu Ungur et al                             : ANISO software                          


 Your calculation uses the libint2 library for the computation of 2-el integrals
 For citations please refer to: http://libint.valeyev.net

 Your ORCA version has been built with support for libXC version: 7.0.0
 For citations please refer to: https://libxc.gitlab.io

 This ORCA versions uses:
   CBLAS   interface :  Fast vector & matrix operations
   LAPACKE interface :  Fast linear algebra routines
   SCALAPACK package :  Parallel linear algebra routines
   Shared memory     :  Shared parallel matrices
   BLAS/LAPACK       :  OpenBLAS 0.3.29  USE64BITINT DYNAMIC_ARCH NO_AFFINITY SkylakeX SINGLE_THREADED
        Core in use  :  SkylakeX
   Copyright (c) 2011-2014, The OpenBLAS Project


  ***********************************
  * Starting time: Sat Feb 28 15:31:10 2026
  * Host name:     adroit-h11n3
  * Process ID:    1722515
  * Working dir.:  /scratch/network/kp0374/CBE423/2/problem_2
  ***********************************

Warning: RI is on but no J-basis has been assigned. Assigning Def2/J (nothing to worry about!)
================================================================================

----- Orbital basis set information -----
Your calculation utilizes the basis: def2-TZVP
   F. Weigend and R. Ahlrichs, Phys. Chem. Chem. Phys. 7, 3297 (2005).

----- AuxJ basis set information -----
Your calculation utilizes the auxiliary basis: def2/J
   H-Rn: F. Weigend, Phys. Chem. Chem. Phys. 8, 1057 (2006).
   Fr-Lr: K. Eichkorn, F. Weigend, O. Treutler, R. Ahlrichs; Theor. Chem. Acc. 97, 119 (1997).

================================================================================
                                        WARNINGS
                       Please study these warnings very carefully!
================================================================================

WARNING: Old DensityContainer found on disk!
         Will remove this file - 
         If you want to keep old densities, please start your calculation with a different basename. 


WARNING: Geometry Optimization
  ===> : Switching off AutoStart
         For restart on a previous wavefunction, please use MOREAD

================================================================================
                                       INPUT FILE
================================================================================
NAME = orca.inp
|  1> # The first line is called the simple input and is where
|  2> # you can put many of the ORCA input arguments
|  3> ! B3LYP def2-TZVP Opt Freq NormalPrint xyzfile 
|  4> 
|  5> # This line tells ORCA to parallelize over 4 CPU cores
|  6> %pal nprocs 4 end 
|  7> 
|  8> # Here we specify the charge, spin, and coordinates
|  9> # Example coordinates are shown for an H2 molecule
| 10> *xyz 0 1
| 11> N 0.0 0.0 0.0
| 12> N 1.103764945364 0.0 0.0
| 13> *
| 14> 
| 15>                          ****END OF INPUT****
================================================================================

                       *****************************
                       * Geometry Optimization Run *
                       *****************************

Geometry optimization settings:
Update method            Update   .... BFGS
Choice of coordinates    CoordSys .... (2022) Redundant Internals
Initial Hessian          InHess   .... Almloef's Model
Max. no of cycles        MaxIter  .... 50

Convergence Tolerances:
Energy Change            TolE     ....  5.0000e-06 Eh
Max. Gradient            TolMAXG  ....  3.0000e-04 Eh/bohr
RMS Gradient             TolRMSG  ....  1.0000e-04 Eh/bohr
Max. Displacement        TolMAXD  ....  4.0000e-03 bohr
RMS Displacement         TolRMSD  ....  2.0000e-03 bohr
Strict Convergence                .... False

------------------------------------------------------------------------------
                        ORCA OPTIMIZATION COORDINATE SETUP
------------------------------------------------------------------------------

The optimization will be done in redundant internal coordinates (2022)
Making redundant internal coordinates   ...  (2022 redundants) done
Evaluating the initial hessian          ...  (Almloef) done
Evaluating the coordinates              ...  done
Calculating the B-matrix                .... done
Calculating the G-matrix                .... done
The number of degrees of freedom        ....    1

    -----------------------------------------------------------------
                    Redundant Internal Coordinates


    -----------------------------------------------------------------
         Definition                    Initial Value    Approx d2E/dq
    -----------------------------------------------------------------
      1. B(N   1,N   0)                  1.1038         1.434439   
    -----------------------------------------------------------------

Number of atoms                         .... 2
Number of degrees of freedom            .... 1


         *************************************************************
         *                GEOMETRY OPTIMIZATION CYCLE   1            *
         *************************************************************
---------------------------------
CARTESIAN COORDINATES (ANGSTROEM)
---------------------------------
  N      0.000000    0.000000    0.000000
  N      1.103765    0.000000    0.000000

----------------------------
CARTESIAN COORDINATES (A.U.)
----------------------------
  NO LB      ZA    FRAG     MASS         X           Y           Z
   0 N     7.0000    0    14.007    0.000000    0.000000    0.000000
   1 N     7.0000    0    14.007    2.085813    0.000000    0.000000

--------------------------------
INTERNAL COORDINATES (ANGSTROEM)
--------------------------------
 N      0   0   0     0.000000000000     0.00000000     0.00000000
 N      1   0   0     1.103764945364     0.00000000     0.00000000

---------------------------
INTERNAL COORDINATES (A.U.)
---------------------------
 N      0   0   0     0.000000000000     0.00000000     0.00000000
 N      1   0   0     2.085813462961     0.00000000     0.00000000

---------------------
BASIS SET INFORMATION
---------------------
There are 1 groups of distinct atoms

 Group   1 Type N   : 11s6p2d1f contracted to 5s3p2d1f pattern {62111/411/11/1}

Atom   0N    basis set group =>   1
Atom   1N    basis set group =>   1
---------------------------------
AUXILIARY/J BASIS SET INFORMATION
---------------------------------
There are 1 groups of distinct atoms

 Group   1 Type N   : 12s5p4d2f1g contracted to 6s4p3d1f1g pattern {711111/2111/211/2/1}

Atom   0N    basis set group =>   1
Atom   1N    basis set group =>   1


           ************************************************************
           *        Program running with 4 parallel MPI-processes     *
           *              working on a common directory               *
           ************************************************************
------------------------------------------------------------------------------
                             ORCA STARTUP CALCULATIONS
                           -- RI-GTO INTEGRALS CHOSEN --
------------------------------------------------------------------------------
------------------------------------------------------------------------------
                   ___                                                        
                  /   \      - P O W E R E D   B Y -                         
                 /     \                                                     
                 |  |  |   _    _      __       _____    __    __             
                 |  |  |  | |  | |    /  \     |  _  \  |  |  /  |          
                  \  \/   | |  | |   /    \    | | | |  |  | /  /          
                 / \  \   | |__| |  /  /\  \   | |_| |  |  |/  /          
                |  |  |   |  __  | /  /__\  \  |    /   |      \           
                |  |  |   | |  | | |   __   |  |    \   |  |\   \          
                \     /   | |  | | |  |  |  |  | |\  \  |  | \   \       
                 \___/    |_|  |_| |__|  |__|  |_| \__\ |__|  \__/        
                                                                              
                      - O R C A' S   B I G   F R I E N D -                    
                                      &                                       
                       - I N T E G R A L  F E E D E R -                       
                                                                              
 v1 FN, 2020, v2 2021, v3 2022-2024                                           
------------------------------------------------------------------------------


----------------------
SHARK INTEGRAL PACKAGE
----------------------

Number of atoms                             ...      2
Number of basis functions                   ...     62
Number of shells                            ...     22
Maximum angular momentum                    ...      3
Integral batch strategy                     ... SHARK/LIBINT Hybrid
RI-J (if used) integral strategy            ... SPLIT-RIJ (Revised 2003 algorithm where possible)
Printlevel                                  ...      1
Contraction scheme used                     ... SEGMENTED contraction
Prescreening option                         ... SCHWARTZ
   Thresh                                   ... 2.500e-11
   Tcut                                     ... 2.500e-12
   Tpresel                                  ... 2.500e-12 
Coulomb Range Separation                    ... NOT USED
Exchange Range Separation                   ... NOT USED
Multipole approximations                    ... NOT USED
Finite Nucleus Model                        ... NOT USED
CABS basis                                  ... NOT available
Auxiliary Coulomb fitting basis             ... AVAILABLE
   # of basis functions in Aux-J            ...     98
   # of shells in Aux-J                     ...     30
   Maximum angular momentum in Aux-J        ...      4
Auxiliary J/K fitting basis                 ... NOT available
Auxiliary Correlation fitting basis         ... NOT available
Auxiliary 'external' fitting basis          ... NOT available

Checking pre-screening integrals            ... done (  0.0 sec) Dimension = 22
   => SHARK Basis and OBASIS are compatible. Storing Pre-screening
Shell pair information
Shell pair cut-off parameter TPreSel        ...   2.5e-12
Total number of shell pairs                 ...       253
Shell pairs after pre-screening             ...       252
Total number of primitive shell pairs       ...       864
Primitive shell pairs kept                  ...       789
          la=0 lb=0:     54 shell pairs
          la=1 lb=0:     60 shell pairs
          la=1 lb=1:     21 shell pairs
          la=2 lb=0:     40 shell pairs
          la=2 lb=1:     24 shell pairs
          la=2 lb=2:     10 shell pairs
          la=3 lb=0:     20 shell pairs
          la=3 lb=1:     12 shell pairs
          la=3 lb=2:      8 shell pairs
          la=3 lb=3:      3 shell pairs

Checking whether 4 symmetric matrices of dimension 62 fit in memory
:Max Core in MB      =   4096.00
 MB in use           =      3.50
 MB left             =   4092.50
 MB needed           =      0.06
 Data fit in memory  = YES
Calculating RI/J V-Matrix + Cholesky decomp.... done (  0.0 sec)
Calculating Nuclear repulsion               ... done (  0.0 sec) ENN=     23.492033621478 Eh

Diagonalization of the overlap matrix:
Smallest eigenvalue                        ... 2.224e-04
Time for diagonalization                   ...    0.001 sec
Threshold for overlap eigenvalues          ... 1.000e-07
Number of eigenvalues below threshold      ... 0
Time for construction of square roots      ...    0.001 sec
Total time needed                          ...    0.004 sec

-------------------
DFT GRID GENERATION
-------------------

General Integration Accuracy     IntAcc      ... 4.388
Radial Grid Type                 RadialGrid  ... OptM3 with GC (2021)
Angular Grid (max. ang.)         AngularGrid ... 4 (Lebedev-302)
Angular grid pruning method      GridPruning ... 4 (adaptive)
Weight generation scheme         WeightScheme... mBecke (2022)
Basis function cutoff            BFCut       ... 1.0000e-11
Integration weight cutoff        WCut        ... 1.0000e-14
Partially contracted basis set               ... off
Rotationally invariant grid construction     ... off
Angular grids for H and He will be reduced by one unit

Total number of grid points                  ...    12256
Total number of batches                      ...      192
Average number of points per batch           ...       63
Average number of grid points per atom       ...     6128

--------------------
COSX GRID GENERATION
--------------------

GRIDX 1
-------
General Integration Accuracy     IntAcc      ... 3.816
Radial Grid Type                 RadialGrid  ... OptM3 with GC (2021)
Angular Grid (max. ang.)         AngularGrid ... 1 (Lebedev-50)
Angular grid pruning method      GridPruning ... 4 (adaptive)
Weight generation scheme         WeightScheme... mBecke (2022)
Basis function cutoff            BFCut       ... 1.0000e-11
Integration weight cutoff        WCut        ... 1.0000e-14
Partially contracted basis set               ... on
Rotationally invariant grid construction     ... off
Angular grids for H and He will be reduced by one unit

Total number of grid points                  ...     1532
Total number of batches                      ...       12
Average number of points per batch           ...      127
Average number of grid points per atom       ...      766
UseSFitting                                  ... on

GRIDX 2
-------
General Integration Accuracy     IntAcc      ... 4.020
Radial Grid Type                 RadialGrid  ... OptM3 with GC (2021)
Angular Grid (max. ang.)         AngularGrid ... 2 (Lebedev-110)
Angular grid pruning method      GridPruning ... 4 (adaptive)
Weight generation scheme         WeightScheme... mBecke (2022)
Basis function cutoff            BFCut       ... 1.0000e-11
Integration weight cutoff        WCut        ... 1.0000e-14
Partially contracted basis set               ... on
Rotationally invariant grid construction     ... off
Angular grids for H and He will be reduced by one unit

Total number of grid points                  ...     3760
Total number of batches                      ...       30
Average number of points per batch           ...      125
Average number of grid points per atom       ...     1880
UseSFitting                                  ... on

GRIDX 3
-------
General Integration Accuracy     IntAcc      ... 4.338
Radial Grid Type                 RadialGrid  ... OptM3 with GC (2021)
Angular Grid (max. ang.)         AngularGrid ... 3 (Lebedev-194)
Angular grid pruning method      GridPruning ... 4 (adaptive)
Weight generation scheme         WeightScheme... mBecke (2022)
Basis function cutoff            BFCut       ... 1.0000e-11
Integration weight cutoff        WCut        ... 1.0000e-14
Partially contracted basis set               ... on
Rotationally invariant grid construction     ... off
Angular grids for H and He will be reduced by one unit

Total number of grid points                  ...     8420
Total number of batches                      ...       66
Average number of points per batch           ...      127
Average number of grid points per atom       ...     4210
UseSFitting                                  ... on
Grids setup in   0.1 sec
Initializing property integral containers    ... done (  0.0 sec)

SHARK setup successfully completed in   0.2 seconds

Maximum memory used throughout the entire STARTUP-calculation: 13.8 MB


           ************************************************************
           *        Program running with 4 parallel MPI-processes     *
           *              working on a common directory               *
           ************************************************************
-------------------------------------------------------------------------------
                                 ORCA GUESS
                   Start orbitals & Density for SCF / CASSCF
-------------------------------------------------------------------------------

------------
SCF SETTINGS
------------
Hamiltonian:
 Density Functional     Method          .... DFT(GTOs)
 Exchange Functional    Exchange        .... B88
   X-Alpha parameter    XAlpha          ....  0.666667
   Becke's b parameter  XBeta           ....  0.004200
 Correlation Functional Correlation     .... LYP
 LDA part of GGA corr.  LDAOpt          .... VWN-5
 Gradients option       PostSCFGGA      .... off
 Hybrid DFT is turned on
   Fraction HF Exchange ScalHFX         ....  0.200000
   Scaling of DF-GGA-X  ScalDFX         ....  0.720000
   Scaling of DF-GGA-C  ScalDFC         ....  0.810000
   Scaling of DF-LDA-C  ScalLDAC        ....  1.000000
   Perturbative correction              ....  0.000000
   NL short-range parameter             ....  4.800000
 RI-approximation to the Coulomb term is turned on
   Number of AuxJ basis functions       .... 98
   RIJ-COSX (HFX calculated with COS-X)).... on


General Settings:
 Integral files         IntName         .... orca
 Hartree-Fock type      HFTyp           .... RHF
 Total Charge           Charge          ....    0
 Multiplicity           Mult            ....    1
 Number of Electrons    NEL             ....   14
 Basis Dimension        Dim             ....   62
 Nuclear Repulsion      ENuc            ....     23.4920336215 Eh

Convergence Acceleration:
 AO-DIIS                CNVDIIS         .... on
   Start iteration      DIISMaxIt       ....    12
   Startup error        DIISStart       ....  0.200000
   # of expansion vecs  DIISMaxEq       ....     5
   Bias factor          DIISBfac        ....   1.050
   Max. coefficient     DIISMaxC        ....  10.000
 MO-DIIS                CNVKDIIS        .... off
 Trust-Rad. Augm. Hess. CNVTRAH         .... auto
   Auto Start mean grad. ratio tolernc. ....  1.125000
   Auto Start start iteration           ....    50
   Auto Start num. interpolation iter.  ....    10
   Max. Number of Micro iterations      ....    24
   Max. Number of Macro iterations      .... Maxiter - #DIIS iter
   Number of Davidson start vectors     ....     2
   Converg. threshold    (grad. norm)   ....   1.000e-05
   Grad. Scal. Fac. for Micro threshold ....   0.100
   Minimum threshold for Micro iter.    ....   1.000e-02
   NR start threshold (gradient norm)   ....   1.000e-04
   Initial trust radius                 ....   0.400
   Minimum AH scaling param. (alpha)    ....   1.000
   Maximum AH scaling param. (alpha)    .... 1000.000
   Quad. conv. algorithm                .... NR
   White noise on init. David. guess    .... on
   Maximum white noise                  ....   0.010
   Pseudo random numbers                .... off
   Inactive MOs                         .... canonical
   Orbital update algorithm             .... Taylor
   Preconditioner                       .... Diag
   Full preconditioner red. dimension   ....   250
 SOSCF                 CNVSOSCF           .... on
   Start iteration     SOSCFMaxIt         ....   150
   Startup grad/error  SOSCFStart         ....  0.003300
   Hessian update      SOSCFHessUp        .... L-BFGS
   Autom. constraints  SOSCFAutoConstrain .... off
 Level Shifting         CNVShift        .... on
   Level shift para.    LevelShift      ....    0.2500
   Turn off err/grad.   ShiftErr        ....    0.0010
 Zerner damping         CNVZerner       .... off
 Static damping         CNVDamp         .... on
   Fraction old density DampFac         ....    0.7000
   Max. Damping (<1)    DampMax         ....    0.9800
   Min. Damping (>=0)   DampMin         ....    0.0000
   Turn off err/grad.   DampErr         ....    0.1000

SCF Procedure:
 Maximum # iterations   MaxIter         ....   125
 SCF integral mode      SCFMode         .... Direct
   Integral package                     .... SHARK and LIBINT hybrid scheme
 Reset frequency        DirectResetFreq ....    20
 Integral Threshold     Thresh          ....  2.500e-11 Eh
 Primitive CutOff       TCut            ....  2.500e-12 Eh

Convergence Tolerance:
 Convergence Check Mode ConvCheckMode   .... Total+1el-Energy
 Convergence forced     ConvForced      .... 0
 Energy Change          TolE            ....  1.000e-08 Eh
 1-El. energy change                    ....  1.000e-05 Eh
 Orbital Gradient       TolG            ....  1.000e-05
 Orbital Rotation angle TolX            ....  1.000e-05
 DIIS Error             TolErr          ....  5.000e-07

------------------------------
INITIAL GUESS: MODEL POTENTIAL
------------------------------
Loading Hartree-Fock densities                     ... done
Calculating cut-offs                               ... done
Initializing the effective Hamiltonian             ... done
Setting up the integral package (SHARK)            ... done
Starting the Coulomb interaction                   ... done (   0.0 sec)
Making the grid                                    ... done (   0.0 sec)
Mapping shells                                     ... done
Starting the XC term evaluation                    ... done (   0.0 sec)
  promolecular density results
     # of electrons  =     13.999992682
     EX              =    -13.045801789
     EC              =     -0.481546534
     EX+EC           =    -13.527348323
Transforming the Hamiltonian                       ... done (   0.0 sec)
Diagonalizing the Hamiltonian                      ... done (   0.0 sec)
Back transforming the eigenvectors                 ... done (   0.0 sec)
Now organizing SCF variables                       ... done
                      ------------------
                      INITIAL GUESS DONE (   0.0 sec)
                      ------------------
             **** ENERGY FILE WAS UPDATED (orca.en.tmp) ****
Finished Guess after   0.3 sec
Maximum memory used throughout the entire GUESS-calculation: 7.2 MB


           ************************************************************
           *        Program running with 4 parallel MPI-processes     *
           *              working on a common directory               *
           ************************************************************

-------------------------------------------------------------------------------------------
                                      ORCA LEAN-SCF
                              memory conserving SCF solver
-------------------------------------------------------------------------------------------

----------------------------------------D-I-I-S--------------------------------------------
Iteration    Energy (Eh)           Delta-E    RMSDP     MaxDP     DIISErr   Damp  Time(sec)
-------------------------------------------------------------------------------------------
               ***  Starting incremental Fock matrix formation  ***
    1    -109.5041331572757741     0.00e+00  2.68e-03  1.69e-02  7.50e-02  0.700   0.1
    2    -109.5109600952819875    -6.83e-03  2.00e-03  1.28e-02  4.48e-02  0.700   0.1
                               ***Turning on AO-DIIS***
    3    -109.5144095331212810    -3.45e-03  7.88e-04  5.10e-03  2.31e-02  0.700   0.1
    4    -109.5164264872953908    -2.02e-03  1.39e-03  8.07e-03  1.48e-02  0.000   0.1
                              *** Initializing SOSCF ***
---------------------------------------S-O-S-C-F--------------------------------------
Iteration    Energy (Eh)           Delta-E    RMSDP     MaxDP     MaxGrad    Time(sec)
--------------------------------------------------------------------------------------
    5    -109.5206779168839688    -4.25e-03  1.30e-04  1.24e-03  5.38e-04     0.1
               *** Restarting incremental Fock matrix formation ***
    6    -109.5206798634488763    -1.95e-06  4.67e-05  4.66e-04  9.56e-05     0.1
    7    -109.5206799205510464    -5.71e-08  9.75e-06  7.44e-05  3.04e-05     0.1
    8    -109.5206799298975540    -9.35e-09  4.06e-06  4.22e-05  7.21e-06     0.1
                 **** Energy Check signals convergence ****

               *****************************************************
               *                     SUCCESS                       *
               *           SCF CONVERGED AFTER   8 CYCLES          *
               *****************************************************

Recomputing exchange energy using gridx3       ... done (    0.108 sec)
Old exchange energy                            :     -2.619342990 Eh
New exchange energy                            :     -2.619346592 Eh
Exchange energy change after final integration :     -0.000003602 Eh
Total energy after final integration           :   -109.520683533 Eh
             **** ENERGY FILE WAS UPDATED (orca.en.tmp) ****

----------------
TOTAL SCF ENERGY
----------------

Total Energy       :       -109.52068353252233 Eh           -2980.20931 eV

Components:
Nuclear Repulsion  :         23.49203362147808 Eh             639.25073 eV
Electronic Energy  :       -133.01271355181836 Eh           -3619.45995 eV
One Electron Energy:       -194.32139405956480 Eh           -5287.75396 eV
Two Electron Energy:         61.30868050774644 Eh            1668.29401 eV

Virial components:
Potential Energy   :       -218.56785447522367 Eh           -5947.53369 eV
Kinetic Energy     :        109.04717094270133 Eh            2967.32438 eV
Virial Ratio       :          2.00434227303402

DFT components:
N(Alpha)           :        7.000001863354 electrons
N(Beta)            :        7.000001863354 electrons
N(Total)           :       14.000003726709 electrons
E(X)               :      -10.452939345533 Eh       
E(C)               :       -0.571431054418 Eh       
E(XC)              :      -11.024370399951 Eh       

---------------
SCF CONVERGENCE
---------------

  Last Energy change         ...    9.3465e-09  Tolerance :   1.0000e-08
  Last MAX-Density change    ...    4.2178e-05  Tolerance :   1.0000e-07
  Last RMS-Density change    ...    4.0551e-06  Tolerance :   5.0000e-09
  Last DIIS Error            ...    5.3848e-04  Tolerance :   5.0000e-07
  Last Orbital Gradient      ...    7.2076e-06  Tolerance :   1.0000e-05
  Last Orbital Rotation      ...    8.2979e-06  Tolerance :   1.0000e-05


----------------
ORBITAL ENERGIES
----------------

  NO   OCC          E(Eh)            E(eV) 
   0   2.0000     -14.421670      -392.4336 
   1   2.0000     -14.420001      -392.3882 
   2   2.0000      -1.124498       -30.5991 
   3   2.0000      -0.557057       -15.1583 
   4   2.0000      -0.467404       -12.7187 
   5   2.0000      -0.467404       -12.7187 
   6   2.0000      -0.434553       -11.8248 
   7   0.0000      -0.032729        -0.8906 
   8   0.0000      -0.032729        -0.8906 
   9   0.0000       0.227920         6.2020 
  10   0.0000       0.253513         6.8984 
  11   0.0000       0.286413         7.7937 
  12   0.0000       0.286413         7.7937 
  13   0.0000       0.321338         8.7441 
  14   0.0000       0.422658        11.5011 
  15   0.0000       0.422658        11.5011 
  16   0.0000       0.481147        13.0927 
  17   0.0000       0.762280        20.7427 
*Only the first 10 virtual orbitals were printed.

                    ********************************
                    * MULLIKEN POPULATION ANALYSIS *
                    ********************************

-----------------------
MULLIKEN ATOMIC CHARGES
-----------------------
   0 N :   -0.000000
   1 N :    0.000000
Sum of atomic charges:    0.0000000

--------------------------------
MULLIKEN REDUCED ORBITAL CHARGES
--------------------------------
  0 N s       :     3.830539  s :     3.830539
      pz      :     0.973934  p :     3.101378
      px      :     1.153510
      py      :     0.973934
      dz2     :     0.003812  d :     0.063105
      dxz     :     0.023929
      dyz     :     0.000000
      dx2y2   :     0.011435
      dxy     :     0.023929
      f0      :     0.000801  f :     0.004978
      f+1     :     0.000264
      f-1     :     0.000134
      f+2     :     0.001336
      f-2     :     0.000000
      f+3     :     0.000440
      f-3     :     0.002004

  1 N s       :     3.830539  s :     3.830539
      pz      :     0.973934  p :     3.101378
      px      :     1.153510
      py      :     0.973934
      dz2     :     0.003812  d :     0.063105
      dxz     :     0.023929
      dyz     :     0.000000
      dx2y2   :     0.011435
      dxy     :     0.023929
      f0      :     0.000801  f :     0.004978
      f+1     :     0.000264
      f-1     :     0.000134
      f+2     :     0.001336
      f-2     :     0.000000
      f+3     :     0.000440
      f-3     :     0.002004


------------------------
MULLIKEN OVERLAP CHARGES
------------------------
B(  0-N ,  1-N ) :   1.1848 


                     *******************************
                     * LOEWDIN POPULATION ANALYSIS *
                     *******************************

----------------------
LOEWDIN ATOMIC CHARGES
----------------------
   0 N :    0.000000
   1 N :   -0.000000

-------------------------------
LOEWDIN REDUCED ORBITAL CHARGES
-------------------------------
  0 N s       :     3.430553  s :     3.430553
      pz      :     0.950832  p :     3.377377
      px      :     1.475712
      py      :     0.950832
      dz2     :     0.020802  d :     0.166016
      dxz     :     0.041403
      dyz     :     0.000000
      dx2y2   :     0.062407
      dxy     :     0.041403
      f0      :     0.002912  f :     0.026055
      f+1     :     0.003947
      f-1     :     0.000485
      f+2     :     0.004853
      f-2     :     0.000000
      f+3     :     0.006579
      f-3     :     0.007279

  1 N s       :     3.430553  s :     3.430553
      pz      :     0.950832  p :     3.377377
      px      :     1.475712
      py      :     0.950832
      dz2     :     0.020802  d :     0.166016
      dxz     :     0.041403
      dyz     :     0.000000
      dx2y2   :     0.062407
      dxy     :     0.041403
      f0      :     0.002912  f :     0.026055
      f+1     :     0.003947
      f-1     :     0.000485
      f+2     :     0.004853
      f-2     :     0.000000
      f+3     :     0.006579
      f-3     :     0.007279


---------------------------------
LOEWDIN BOND ORDERS (THRESH 0.050000)
---------------------------------
B(  0-N ,  1-N ) :   3.7356 

------------------------------------------
LOEWDIN REDUCED ORBITAL POPULATIONS PER MO
-------------------------------------------
THRESHOLD FOR PRINTING IS 0.1%%
                      0         1         2         3         4         5   
                 -14.42167 -14.42000  -1.12450  -0.55706  -0.46740  -0.46740
                   2.00000   2.00000   2.00000   2.00000   2.00000   2.00000
                  --------  --------  --------  --------  --------  --------
 0 N  s              49.5      49.6      33.5      22.9       0.0       0.0
 0 N  pz              0.0       0.0       0.0       0.0       0.2      47.4
 0 N  px              0.1       0.1      14.5      25.4       0.0       0.0
 0 N  py              0.0       0.0       0.0       0.0      47.4       0.2
 0 N  dz2             0.1       0.0       0.4       0.4       0.0       0.0
 0 N  dxz             0.0       0.0       0.0       0.0       0.0       2.1
 0 N  dx2y2           0.2       0.1       1.3       1.3       0.0       0.0
 0 N  dxy             0.0       0.0       0.0       0.0       2.1       0.0
 0 N  f0              0.0       0.0       0.0       0.0       0.0       0.1
 0 N  f+2             0.0       0.0       0.0       0.0       0.0       0.2
 0 N  f+3             0.1       0.1       0.1       0.0       0.0       0.0
 0 N  f-3             0.0       0.0       0.0       0.0       0.4       0.0
 1 N  s              49.5      49.6      33.5      22.9       0.0       0.0
 1 N  pz              0.0       0.0       0.0       0.0       0.2      47.4
 1 N  px              0.1       0.1      14.5      25.4       0.0       0.0
 1 N  py              0.0       0.0       0.0       0.0      47.4       0.2
 1 N  dz2             0.1       0.0       0.4       0.4       0.0       0.0
 1 N  dxz             0.0       0.0       0.0       0.0       0.0       2.1
 1 N  dx2y2           0.2       0.1       1.3       1.3       0.0       0.0
 1 N  dxy             0.0       0.0       0.0       0.0       2.1       0.0
 1 N  f0              0.0       0.0       0.0       0.0       0.0       0.1
 1 N  f+2             0.0       0.0       0.0       0.0       0.0       0.2
 1 N  f+3             0.1       0.1       0.1       0.0       0.0       0.0
 1 N  f-3             0.0       0.0       0.0       0.0       0.4       0.0

                      6         7         8         9        10        11   
                  -0.43455  -0.03273  -0.03273   0.22792   0.25351   0.28641
                   2.00000   0.00000   0.00000   0.00000   0.00000   0.00000
                  --------  --------  --------  --------  --------  --------
 0 N  s              15.9       0.0       0.0      43.2       7.0       0.0
 0 N  pz              0.0       0.6      40.3       0.0       0.0       2.8
 0 N  px             33.7       0.0       0.0       2.3      37.0       0.0
 0 N  py              0.0      40.3       0.6       0.0       0.0      45.7
 0 N  dz2             0.1       0.0       0.0       1.1       1.5       0.0
 0 N  dxz             0.0       0.1       7.9       0.0       0.0       0.1
 0 N  dx2y2           0.2       0.0       0.0       3.3       4.4       0.0
 0 N  dxy             0.0       7.9       0.1       0.0       0.0       1.1
 0 N  f0              0.0       0.0       0.4       0.0       0.0       0.0
 0 N  f+2             0.0       0.0       0.6       0.0       0.0       0.0
 0 N  f-3             0.0       1.0       0.0       0.0       0.0       0.3
 1 N  s              15.9       0.0       0.0      43.2       7.0       0.0
 1 N  pz              0.0       0.6      40.3       0.0       0.0       2.8
 1 N  px             33.7       0.0       0.0       2.3      37.0       0.0
 1 N  py              0.0      40.3       0.6       0.0       0.0      45.7
 1 N  dz2             0.1       0.0       0.0       1.1       1.5       0.0
 1 N  dxz             0.0       0.1       7.9       0.0       0.0       0.1
 1 N  dx2y2           0.2       0.0       0.0       3.3       4.4       0.0
 1 N  dxy             0.0       7.9       0.1       0.0       0.0       1.1
 1 N  f0              0.0       0.0       0.4       0.0       0.0       0.0
 1 N  f+2             0.0       0.0       0.6       0.0       0.0       0.0
 1 N  f-3             0.0       1.0       0.0       0.0       0.0       0.3

                     12        13        14        15        16        17   
                   0.28641   0.32134   0.42266   0.42266   0.48115   0.76228
                   0.00000   0.00000   0.00000   0.00000   0.00000   0.00000
                  --------  --------  --------  --------  --------  --------
 0 N  s               0.0       0.5       0.0       0.0      31.6      15.0
 0 N  pz             45.7       0.0      33.0      16.1       0.0       0.0
 0 N  px              0.0      44.6       0.0       0.0       5.1      20.2
 0 N  py              2.8       0.0      16.1      33.0       0.0       0.0
 0 N  dz2             0.0       1.2       0.0       0.0       3.3       3.3
 0 N  dxz             1.1       0.0       0.2       0.1       0.0       0.0
 0 N  dx2y2           0.0       3.5       0.0       0.0       9.9       9.9
 0 N  dxy             0.1       0.0       0.1       0.2       0.0       0.0
 0 N  f0              0.1       0.0       0.1       0.1       0.0       0.0
 0 N  f+1             0.0       0.1       0.0       0.0       0.0       0.6
 0 N  f+2             0.2       0.0       0.2       0.1       0.0       0.0
 0 N  f+3             0.0       0.1       0.0       0.0       0.1       1.0
 0 N  f-3             0.0       0.0       0.2       0.4       0.0       0.0
 1 N  s               0.0       0.5       0.0       0.0      31.6      15.0
 1 N  pz             45.7       0.0      33.0      16.1       0.0       0.0
 1 N  px              0.0      44.6       0.0       0.0       5.1      20.2
 1 N  py              2.8       0.0      16.1      33.0       0.0       0.0
 1 N  dz2             0.0       1.2       0.0       0.0       3.3       3.3
 1 N  dxz             1.1       0.0       0.2       0.1       0.0       0.0
 1 N  dx2y2           0.0       3.5       0.0       0.0       9.9       9.9
 1 N  dxy             0.1       0.0       0.1       0.2       0.0       0.0
 1 N  f0              0.1       0.0       0.1       0.1       0.0       0.0
 1 N  f+1             0.0       0.1       0.0       0.0       0.0       0.6
 1 N  f+2             0.2       0.0       0.2       0.1       0.0       0.0
 1 N  f+3             0.0       0.1       0.0       0.0       0.1       1.0
 1 N  f-3             0.0       0.0       0.2       0.4       0.0       0.0

                     18        19        20        21        22        23   
                   0.83522   0.83522   1.08678   1.08678   1.26397   1.26398
                   0.00000   0.00000   0.00000   0.00000   0.00000   0.00000
                  --------  --------  --------  --------  --------  --------
 0 N  pz              0.0       0.0       0.1       3.2       0.0       0.0
 0 N  py              0.0       0.0       3.2       0.1       0.0       0.0
 0 N  dz2            37.2       0.0       0.0       0.0      36.4       0.0
 0 N  dxz             0.0       0.0       1.1      45.5       0.0       0.0
 0 N  dyz             0.0      49.6       0.0       0.0       0.0      48.5
 0 N  dx2y2          12.4       0.0       0.0       0.0      12.1       0.0
 0 N  dxy             0.0       0.0      45.5       1.1       0.0       0.0
 0 N  f+1             0.3       0.0       0.0       0.0       1.0       0.0
 0 N  f-2             0.0       0.4       0.0       0.0       0.0       1.5
 0 N  f+3             0.2       0.0       0.0       0.0       0.6       0.0
 1 N  pz              0.0       0.0       0.1       3.2       0.0       0.0
 1 N  py              0.0       0.0       3.2       0.1       0.0       0.0
 1 N  dz2            37.2       0.0       0.0       0.0      36.4       0.0
 1 N  dxz             0.0       0.0       1.1      45.5       0.0       0.0
 1 N  dyz             0.0      49.6       0.0       0.0       0.0      48.5
 1 N  dx2y2          12.4       0.0       0.0       0.0      12.1       0.0
 1 N  dxy             0.0       0.0      45.5       1.1       0.0       0.0
 1 N  f+1             0.3       0.0       0.0       0.0       1.0       0.0
 1 N  f-2             0.0       0.4       0.0       0.0       0.0       1.5
 1 N  f+3             0.2       0.0       0.0       0.0       0.6       0.0

                     24        25        26        27        28        29   
                   1.31886   1.65912   1.65912   1.71208   1.84523   1.93603
                   0.00000   0.00000   0.00000   0.00000   0.00000   0.00000
                  --------  --------  --------  --------  --------  --------
 0 N  s               9.3       0.0       0.0      15.8      33.3       0.0
 0 N  pz              0.0       5.2       4.1       0.0       0.0       4.4
 0 N  px             11.1       0.0       0.0      19.4      15.3       0.0
 0 N  py              0.0       4.1       5.2       0.0       0.0      44.7
 0 N  dz2             7.4       0.0       0.0       2.3       0.1       0.0
 0 N  dxz             0.0      18.9      14.9       0.0       0.0       0.0
 0 N  dx2y2          22.1       0.0       0.0       7.0       0.2       0.0
 0 N  dxy             0.0      14.9      18.9       0.0       0.0       0.2
 0 N  f0              0.0       1.4       1.1       0.0       0.0       0.0
 0 N  f+1             0.1       0.0       0.0       2.1       0.4       0.0
 0 N  f-1             0.0       0.2       0.2       0.0       0.0       0.0
 0 N  f+2             0.0       2.4       1.9       0.0       0.0       0.0
 0 N  f+3             0.1       0.0       0.0       3.4       0.7       0.0
 0 N  f-3             0.0       2.9       3.6       0.0       0.0       0.5
 1 N  s               9.3       0.0       0.0      15.8      33.3       0.0
 1 N  pz              0.0       5.2       4.1       0.0       0.0       4.4
 1 N  px             11.1       0.0       0.0      19.4      15.3       0.0
 1 N  py              0.0       4.1       5.2       0.0       0.0      44.7
 1 N  dz2             7.4       0.0       0.0       2.3       0.1       0.0
 1 N  dxz             0.0      18.9      14.9       0.0       0.0       0.0
 1 N  dx2y2          22.1       0.0       0.0       7.0       0.2       0.0
 1 N  dxy             0.0      14.9      18.9       0.0       0.0       0.2
 1 N  f0              0.0       1.4       1.1       0.0       0.0       0.0
 1 N  f+1             0.1       0.0       0.0       2.1       0.4       0.0
 1 N  f-1             0.0       0.2       0.2       0.0       0.0       0.0
 1 N  f+2             0.0       2.4       1.9       0.0       0.0       0.0
 1 N  f+3             0.1       0.0       0.0       3.4       0.7       0.0
 1 N  f-3             0.0       2.9       3.6       0.0       0.0       0.5

                     30        31        32        33        34        35   
                   1.93603   2.03177   2.23654   2.23654   2.52878   2.86052
                   0.00000   0.00000   0.00000   0.00000   0.00000   0.00000
                  --------  --------  --------  --------  --------  --------
 0 N  s               0.0      31.3       0.0       0.0       3.2      14.5
 0 N  pz             44.7       0.0      10.8      30.8       0.0       0.0
 0 N  px              0.0       6.1       0.0       0.0      15.9      26.9
 0 N  py              4.4       0.0      30.8      10.8       0.0       0.0
 0 N  dz2             0.0       2.0       0.0       0.0       1.7       0.5
 0 N  dxz             0.2       0.0       0.3       0.8       0.0       0.0
 0 N  dx2y2           0.0       5.9       0.0       0.0       5.1       1.5
 0 N  dxy             0.0       0.0       0.8       0.3       0.0       0.0
 0 N  f0              0.2       0.0       0.7       2.0       0.0       0.0
 0 N  f+1             0.0       1.8       0.0       0.0       9.0       2.5
 0 N  f-1             0.0       0.0       0.3       0.1       0.0       0.0
 0 N  f+2             0.4       0.0       1.2       3.4       0.0       0.0
 0 N  f+3             0.0       2.9       0.0       0.0      15.1       4.1
 0 N  f-3             0.1       0.0       5.1       1.8       0.0       0.0
 1 N  s               0.0      31.3       0.0       0.0       3.2      14.5
 1 N  pz             44.7       0.0      10.8      30.8       0.0       0.0
 1 N  px              0.0       6.1       0.0       0.0      15.9      26.9
 1 N  py              4.4       0.0      30.8      10.8       0.0       0.0
 1 N  dz2             0.0       2.0       0.0       0.0       1.7       0.5
 1 N  dxz             0.2       0.0       0.3       0.8       0.0       0.0
 1 N  dx2y2           0.0       5.9       0.0       0.0       5.1       1.5
 1 N  dxy             0.0       0.0       0.8       0.3       0.0       0.0
 1 N  f0              0.2       0.0       0.7       2.0       0.0       0.0
 1 N  f+1             0.0       1.8       0.0       0.0       9.0       2.5
 1 N  f-1             0.0       0.0       0.3       0.1       0.0       0.0
 1 N  f+2             0.4       0.0       1.2       3.4       0.0       0.0
 1 N  f+3             0.0       2.9       0.0       0.0      15.1       4.1
 1 N  f-3             0.1       0.0       5.1       1.8       0.0       0.0

                     36        37        38        39        40        41   
                   3.45896   3.45896   3.59151   3.59151   3.60201   3.60201
                   0.00000   0.00000   0.00000   0.00000   0.00000   0.00000
                  --------  --------  --------  --------  --------  --------
 0 N  pz              0.0       0.0       0.0       0.9       0.0       0.0
 0 N  py              0.0       0.0       0.9       0.0       0.0       0.0
 0 N  dz2             0.0       2.1       0.0       0.0       0.0       0.0
 0 N  dxz             0.0       0.0       1.0      23.8       0.0       0.0
 0 N  dyz             2.9       0.0       0.0       0.0       0.0       0.0
 0 N  dx2y2           0.0       0.7       0.0       0.0       0.0       0.0
 0 N  dxy             0.0       0.0      23.8       1.0       0.0       0.0
 0 N  f0              0.0       0.0       0.4       8.7      28.3       3.0
 0 N  f+1             0.0      29.5       0.0       0.0       0.0       0.0
 0 N  f-1             0.0       0.0       1.5       0.1       4.5      42.4
 0 N  f+2             0.0       0.0       0.6      14.6      17.0       1.8
 0 N  f-2            47.1       0.0       0.0       0.0       0.0       0.0
 0 N  f+3             0.0      17.7       0.0       0.0       0.0       0.0
 0 N  f-3             0.0       0.0      21.8       0.9       0.3       2.8
 1 N  pz              0.0       0.0       0.0       0.9       0.0       0.0
 1 N  py              0.0       0.0       0.9       0.0       0.0       0.0
 1 N  dz2             0.0       2.1       0.0       0.0       0.0       0.0
 1 N  dxz             0.0       0.0       1.0      23.8       0.0       0.0
 1 N  dyz             2.9       0.0       0.0       0.0       0.0       0.0
 1 N  dx2y2           0.0       0.7       0.0       0.0       0.0       0.0
 1 N  dxy             0.0       0.0      23.8       1.0       0.0       0.0
 1 N  f0              0.0       0.0       0.4       8.7      28.3       3.0
 1 N  f+1             0.0      29.5       0.0       0.0       0.0       0.0
 1 N  f-1             0.0       0.0       1.5       0.1       4.5      42.4
 1 N  f+2             0.0       0.0       0.6      14.6      17.0       1.8
 1 N  f-2            47.1       0.0       0.0       0.0       0.0       0.0
 1 N  f+3             0.0      17.7       0.0       0.0       0.0       0.0
 1 N  f-3             0.0       0.0      21.8       0.9       0.3       2.8

                     42        43        44        45        46        47   
                   4.07162   4.07162   4.11505   4.34727   4.34729   4.48033
                   0.00000   0.00000   0.00000   0.00000   0.00000   0.00000
                  --------  --------  --------  --------  --------  --------
 0 N  s               0.0       0.0       0.9       0.0       0.0       0.0
 0 N  px              0.0       0.0       1.5       0.0       0.0       0.0
 0 N  dz2             0.0       0.0      11.7      35.7       0.0      37.4
 0 N  dyz             0.0       0.0       0.0       0.0      47.6       0.0
 0 N  dx2y2           0.0       0.0      35.1      11.9       0.0      12.5
 0 N  f0              3.2      28.1       0.0       0.0       0.0       0.0
 0 N  f+1             0.0       0.0       0.3       1.5       0.0       0.1
 0 N  f-1            42.1       4.8       0.0       0.0       0.0       0.0
 0 N  f+2             1.9      16.8       0.0       0.0       0.0       0.0
 0 N  f-2             0.0       0.0       0.0       0.0       2.4       0.0
 0 N  f+3             0.0       0.0       0.5       0.9       0.0       0.1
 0 N  f-3             2.8       0.3       0.0       0.0       0.0       0.0
 1 N  s               0.0       0.0       0.9       0.0       0.0       0.0
 1 N  px              0.0       0.0       1.5       0.0       0.0       0.0
 1 N  dz2             0.0       0.0      11.7      35.7       0.0      37.4
 1 N  dyz             0.0       0.0       0.0       0.0      47.6       0.0
 1 N  dx2y2           0.0       0.0      35.1      11.9       0.0      12.5
 1 N  f0              3.2      28.1       0.0       0.0       0.0       0.0
 1 N  f+1             0.0       0.0       0.3       1.5       0.0       0.1
 1 N  f-1            42.1       4.8       0.0       0.0       0.0       0.0
 1 N  f+2             1.9      16.8       0.0       0.0       0.0       0.0
 1 N  f-2             0.0       0.0       0.0       0.0       2.4       0.0
 1 N  f+3             0.0       0.0       0.5       0.9       0.0       0.1
 1 N  f-3             2.8       0.3       0.0       0.0       0.0       0.0

                     48        49        50        51        52        53   
                   4.48034   4.52005   4.52005   4.89863   4.89865   4.93666
                   0.00000   0.00000   0.00000   0.00000   0.00000   0.00000
                  --------  --------  --------  --------  --------  --------
 0 N  s               0.0       0.0       0.0       0.0       0.0       3.5
 0 N  pz              0.0       2.7       0.0       0.0       0.0       0.0
 0 N  px              0.0       0.0       0.0       0.0       0.0       1.5
 0 N  py              0.0       0.0       2.7       0.0       0.0       0.0
 0 N  dz2             0.0       0.0       0.0       0.0       1.3       5.6
 0 N  dxz             0.0      37.8       0.1       0.0       0.0       0.0
 0 N  dyz            49.8       0.0       0.0       1.7       0.0       0.0
 0 N  dx2y2           0.0       0.0       0.0       0.0       0.4      16.7
 0 N  dxy             0.0       0.1      37.8       0.0       0.0       0.0
 0 N  f0              0.0       3.5       0.0       0.0       0.0       0.0
 0 N  f+1             0.0       0.0       0.0       0.0      30.2       8.5
 0 N  f-1             0.0       0.0       0.6       0.0       0.0       0.0
 0 N  f+2             0.0       5.9       0.0       0.0       0.0       0.0
 0 N  f-2             0.2       0.0       0.0      48.3       0.0       0.0
 0 N  f+3             0.0       0.0       0.0       0.0      18.1      14.2
 0 N  f-3             0.0       0.0       8.8       0.0       0.0       0.0
 1 N  s               0.0       0.0       0.0       0.0       0.0       3.5
 1 N  pz              0.0       2.7       0.0       0.0       0.0       0.0
 1 N  px              0.0       0.0       0.0       0.0       0.0       1.5
 1 N  py              0.0       0.0       2.7       0.0       0.0       0.0
 1 N  dz2             0.0       0.0       0.0       0.0       1.3       5.6
 1 N  dxz             0.0      37.8       0.1       0.0       0.0       0.0
 1 N  dyz            49.8       0.0       0.0       1.7       0.0       0.0
 1 N  dx2y2           0.0       0.0       0.0       0.0       0.4      16.7
 1 N  dxy             0.0       0.1      37.8       0.0       0.0       0.0
 1 N  f0              0.0       3.5       0.0       0.0       0.0       0.0
 1 N  f+1             0.0       0.0       0.0       0.0      30.2       8.5
 1 N  f-1             0.0       0.0       0.6       0.0       0.0       0.0
 1 N  f+2             0.0       5.9       0.0       0.0       0.0       0.0
 1 N  f-2             0.2       0.0       0.0      48.3       0.0       0.0
 1 N  f+3             0.0       0.0       0.0       0.0      18.1      14.2
 1 N  f-3             0.0       0.0       8.8       0.0       0.0       0.0

                     54        55        56        57        58        59   
                   4.98296   4.98296   6.12347   6.21775   6.21775   6.52962
                   0.00000   0.00000   0.00000   0.00000   0.00000   0.00000
                  --------  --------  --------  --------  --------  --------
 0 N  s               0.0       0.0      10.7       0.0       0.0       9.4
 0 N  pz              0.0       0.5       0.0       1.0       5.4       0.0
 0 N  px              0.0       0.0      10.9       0.0       0.0       7.7
 0 N  py              0.5       0.0       0.0       5.4       1.0       0.0
 0 N  dz2             0.0       0.0       1.3       0.0       0.0       6.1
 0 N  dxz             1.8      23.3       0.0       2.9      16.0       0.0
 0 N  dx2y2           0.0       0.0       3.9       0.0       0.0      18.2
 0 N  dxy            23.3       1.8       0.0      16.0       2.9       0.0
 0 N  f0              0.7       8.5       0.0       1.4       7.9       0.0
 0 N  f+1             0.0       0.0       8.7       0.0       0.0       3.2
 0 N  f-1             1.4       0.1       0.0       1.3       0.2       0.0
 0 N  f+2             1.1      14.1       0.0       2.4      13.1       0.0
 0 N  f+3             0.0       0.0      14.5       0.0       0.0       5.4
 0 N  f-3            21.2       1.6       0.0      19.6       3.6       0.0
 1 N  s               0.0       0.0      10.7       0.0       0.0       9.4
 1 N  pz              0.0       0.5       0.0       1.0       5.4       0.0
 1 N  px              0.0       0.0      10.9       0.0       0.0       7.7
 1 N  py              0.5       0.0       0.0       5.4       1.0       0.0
 1 N  dz2             0.0       0.0       1.3       0.0       0.0       6.1
 1 N  dxz             1.8      23.3       0.0       2.9      16.0       0.0
 1 N  dx2y2           0.0       0.0       3.9       0.0       0.0      18.2
 1 N  dxy            23.3       1.8       0.0      16.0       2.9       0.0
 1 N  f0              0.7       8.5       0.0       1.4       7.9       0.0
 1 N  f+1             0.0       0.0       8.7       0.0       0.0       3.2
 1 N  f-1             1.4       0.1       0.0       1.3       0.2       0.0
 1 N  f+2             1.1      14.1       0.0       2.4      13.1       0.0
 1 N  f+3             0.0       0.0      14.5       0.0       0.0       5.4
 1 N  f-3            21.2       1.6       0.0      19.6       3.6       0.0

                     60        61   
                  31.19061  31.95241
                   0.00000   0.00000
                  --------  --------
 0 N  s              50.0      49.4
 0 N  px              0.0       0.5
 1 N  s              50.0      49.4
 1 N  px              0.0       0.5


                      *****************************
                      * MAYER POPULATION ANALYSIS *
                      *****************************

  NA   - Mulliken gross atomic population
  ZA   - Total nuclear charge
  QA   - Mulliken gross atomic charge
  VA   - Mayer's total valence
  BVA  - Mayer's bonded valence
  FA   - Mayer's free valence

  ATOM       NA         ZA         QA         VA         BVA        FA
  0 N      7.0000     7.0000    -0.0000     2.8029     2.8029     0.0000
  1 N      7.0000     7.0000     0.0000     2.8029     2.8029     0.0000

  Mayer bond orders larger than 0.100000
B(  0-N ,  1-N ) :   2.8029 

-------
TIMINGS
-------

Total SCF time: 0 days 0 hours 0 min 1 sec 

Total time                  ....       1.389 sec
Sum of individual times     ....       1.251 sec  ( 90.0%)

SCF preparation             ....       0.299 sec  ( 21.5%)
Fock matrix formation       ....       0.830 sec  ( 59.7%)
  Startup                   ....       0.007 sec  (  0.8% of F)
  Split-RI-J                ....       0.065 sec  (  7.9% of F)
  Chain of spheres X        ....       0.639 sec  ( 77.1% of F)
  XC integration            ....       0.167 sec  ( 20.1% of F)
    XC Preparation          ....       0.000 sec  (  0.0% of XC)
    Basis function eval.    ....       0.039 sec  ( 23.3% of XC)
    Density eval.           ....       0.017 sec  ( 10.3% of XC)
    XC-Functional eval.     ....       0.013 sec  (  7.6% of XC)
    XC-Potential eval.      ....       0.039 sec  ( 23.3% of XC)
Diagonalization             ....       0.000 sec  (  0.0%)
Density matrix formation    ....       0.024 sec  (  1.7%)
Total Energy calculation    ....       0.011 sec  (  0.8%)
Population analysis         ....       0.013 sec  (  1.0%)
Orbital Transformation      ....       0.009 sec  (  0.7%)
Orbital Orthonormalization  ....       0.000 sec  (  0.0%)
DIIS solution               ....       0.041 sec  (  2.9%)
  MO trafo                  ....       0.000 sec  (  0.0 % of DIIS)
  Orb grad                  ....       0.000 sec  (  0.0 % of DIIS)
  Energy W gradient         ....       0.000 sec  (  0.0 % of DIIS)
  DIIS error                ....       0.005 sec  ( 11.3 % of DIIS)
  DIIS work                 ....       0.026 sec  ( 64.0 % of DIIS)
  Form Q                    ....       0.000 sec  (  0.0 % of DIIS)
  Form QpQm                 ....       0.000 sec  (  0.0 % of DIIS)
  Exp/Cayley                ....       0.000 sec  (  0.0 % of DIIS)
  Orb update                ....       0.000 sec  (  0.0 % of DIIS)
  Wake-sleep                ....       0.005 sec  ( 12.8 % of DIIS)
SOSCF solution              ....       0.024 sec  (  1.7%)
  MO trafo                  ....       0.009 sec  ( 40.0 % of SOSCF)
  Orb grad                  ....       0.002 sec  (  7.3 % of SOSCF)
  Rot update                ....       0.003 sec  ( 11.6 % of SOSCF)
  Step                      ....       0.005 sec  ( 21.8 % of SOSCF)
Finished LeanSCF after   1.4 sec

Maximum memory used throughout the entire LEANSCF-calculation: 5.9 MB


           ************************************************************
           *        Program running with 4 parallel MPI-processes     *
           *              working on a common directory               *
           ************************************************************

------------------------------------------------------------------------------
                         ORCA PROPERTY INTEGRAL CALCULATIONS
------------------------------------------------------------------------------

GBWName                                   ... orca.gbw
Number of atoms                           ...      2
Number of basis functions                 ...     62
Max core memory                           ...   4096 MB

Dipole integrals                          ... YES
Quadrupole integrals                      ...  NO
Linear momentum integrals                 ...  NO
Angular momentum integrals                ...  NO
Higher moments length integrals           ...  NO
Higher moments velocity integrals         ...  NO
Kinetic energy integrals                  ...  NO
GIAO right hand sides                     ...  NO
GIAO dipole derivative integrals          ...  NO
SOC integrals                             ...  NO
EPR diamagnetic integrals (GIAO)          ...  NO
EPR gauge integrals                       ...  NO
Field gradient integrals                  ...  NO (   0 nuclei)
Spin-dipole/Fermi contact integrals       ...  NO (   0 nuclei)
Contact density integrals                 ...  NO (   0 nuclei)
Nucleus-orbit integrals                   ...  NO (   0 nuclei)
Geometric perturbations                   ...  NO (   2 nuclei)

Choice of electric origin   ... Center of mass
Position of electric origin ... (  1.0429,  0.0000,  0.0000) 
Choice of magnetic origin   ... GIAO
Position of magnetic origin ... (  0.0000,  0.0000,  0.0000) 

Calculating integrals                     ... Electric Dipole (Length)     done (  0.0 sec)

Property integrals calculated in   0.0 sec

Maximum memory used throughout the entire PROPINT-calculation: 7.3 MB

-------------------------   --------------------
FINAL SINGLE POINT ENERGY      -109.520683532522
-------------------------   --------------------



           ************************************************************
           *        Program running with 4 parallel MPI-processes     *
           *              working on a common directory               *
           ************************************************************
------------------------------------------------------------------------------
                         ORCA SCF GRADIENT CALCULATION
------------------------------------------------------------------------------

Nuc. rep. gradient        (SHARK) ... done (  0.0 sec)
HCore & Overlap gradient  (SHARK) ... done (  0.0 sec)
Split-RIJ-J gradient      (SHARK) ... done (  0.1 sec)
COSX-gradient                     ... done (  0.4 sec)
XC gradient                       ... done (  0.1 sec)

------------------
CARTESIAN GRADIENT
------------------

   1   N   :   -0.036571870   -0.000000006   -0.000000002
   2   N   :    0.036571870    0.000000006    0.000000002

Difference to translation invariance:
           :    0.0000000000    0.0000000000   -0.0000000000

Difference to rotation invariance:
           :    0.0000000000   -0.0000000035    0.0000000120

Norm of the Cartesian gradient     ...    0.0517204344
RMS gradient                       ...    0.0211147789
MAX gradient                       ...    0.0365718699

-------
TIMINGS
-------

Total SCF gradient time     ....        0.601 sec

Densities                   ....       0.000 sec  (  0.0%)
One electron gradient       ....       0.007 sec  (  1.1%)
RI-J Coulomb gradient       ....       0.101 sec  ( 16.8%)
COSX gradient               ....       0.431 sec  ( 71.6%)
XC gradient                 ....       0.063 sec  ( 10.4%)

Maximum memory used throughout the entire SCFGRAD-calculation: 8.3 MB
------------------------------------------------------------------------------
                         ORCA GEOMETRY RELAXATION STEP
------------------------------------------------------------------------------

Reading the OPT-File                    .... done
Getting information on internals        .... done
Copying old internal coords+grads       .... done
Making the new internal coordinates     .... (2022 redundants) done
Validating the new internal coordinates .... (2022 redundants) done
Calculating the B-matrix                .... done
Calculating the G,G- and P matrices     .... done
Transforming gradient to internals      .... done
Projecting the internal gradient        .... done
Number of atoms                         ....   2
Number of internal coordinates          ....   1
Current Energy                          ....  -109.520683533 Eh
Current gradient norm                   ....     0.051720434 Eh/bohr
Maximum allowed component of the step   ....  0.300
Current trust radius                    ....  0.300
Evaluating the initial hessian          ....  (Almloef) done
Projecting the Hessian                  .... done
Forming the augmented Hessian           .... done
Diagonalizing the augmented Hessian     .... done
Last element of RFO vector              ....  0.999675567
Lowest eigenvalues of augmented Hessian:
 -0.000931816
Length of the computed step             ....  0.025479036
The final length of the internal step   ....  0.025479036
Converting the step to Cartesian space:
 Initial RMS(Int)=    0.0254790360
Transforming coordinates:
 Iter   0:  RMS(Cart)=    0.0073551641 RMS(Int)=    0.0254790360
done
Storing new coordinates                 .... done

                                .--------------------.
          ----------------------|Geometry convergence|-------------------------
          Item                value                   Tolerance       Converged
          ---------------------------------------------------------------------
          RMS gradient        0.0365718699            0.0001000000      NO
          MAX gradient        0.0365718699            0.0003000000      NO
          RMS step            0.0254790360            0.0020000000      NO
          MAX step            0.0254790360            0.0040000000      NO
          -------------------------------------------------------------------------
          ........................................................
          Max(Bonds)      0.0135      Max(Angles)    0.00
          Max(Dihed)        0.00      Max(Improp)    0.00
          ---------------------------------------------------------------------

The optimization has not yet converged - more geometry cycles are needed


    ---------------------------------------------------------------------------
                         Redundant Internal Coordinates
                            (Angstroem and degrees)

        Definition                    Value    dE/dq     Step     New-Value
    ----------------------------------------------------------------------------
     1. B(N   1,N   0)                1.1038  0.036572 -0.0135    1.0903   
    ----------------------------------------------------------------------------

Geometry step timings:
Preparation and reading OPT file:      0.000 s (12.520 %)
Internal coordinates            :      0.000 s ( 1.292 %)
B/P matrices and projection     :      0.000 s ( 6.462 %)
Hessian update/contruction      :      0.000 s (33.118 %)
Making the step                 :      0.000 s ( 5.977 %)
Converting the step to Cartesian:      0.000 s ( 2.504 %)
Storing new data                :      0.000 s (18.255 %)
Checking convergence            :      0.000 s ( 2.019 %)
Final printing                  :      0.000 s (17.851 %)
Total time                      :      0.001 s

Time for energy+gradient        :      4.034 s
Time for complete geometry iter :      4.437 s

         *************************************************************
         *                GEOMETRY OPTIMIZATION CYCLE   2            *
         *************************************************************
---------------------------------
CARTESIAN COORDINATES (ANGSTROEM)
---------------------------------
  N      0.006741    0.000000    0.000000
  N      1.097023    0.000000    0.000000

----------------------------
CARTESIAN COORDINATES (A.U.)
----------------------------
  NO LB      ZA    FRAG     MASS         X           Y           Z
   0 N     7.0000    0    14.007    0.012740    0.000000    0.000000
   1 N     7.0000    0    14.007    2.073074    0.000000    0.000000

--------------------------------
INTERNAL COORDINATES (ANGSTROEM)
--------------------------------
 N      0   0   0     0.000000000000     0.00000000     0.00000000
 N      1   0   0     1.090282020226     0.00000000     0.00000000

---------------------------
INTERNAL COORDINATES (A.U.)
---------------------------
 N      0   0   0     0.000000000000     0.00000000     0.00000000
 N      1   0   0     2.060334426965     0.00000000     0.00000000



           ************************************************************
           *        Program running with 4 parallel MPI-processes     *
           *              working on a common directory               *
           ************************************************************
------------------------------------------------------------------------------
                   ___                                                        
                  /   \      - P O W E R E D   B Y -                         
                 /     \                                                     
                 |  |  |   _    _      __       _____    __    __             
                 |  |  |  | |  | |    /  \     |  _  \  |  |  /  |          
                  \  \/   | |  | |   /    \    | | | |  |  | /  /          
                 / \  \   | |__| |  /  /\  \   | |_| |  |  |/  /          
                |  |  |   |  __  | /  /__\  \  |    /   |      \           
                |  |  |   | |  | | |   __   |  |    \   |  |\   \          
                \     /   | |  | | |  |  |  |  | |\  \  |  | \   \       
                 \___/    |_|  |_| |__|  |__|  |_| \__\ |__|  \__/        
                                                                              
                      - O R C A' S   B I G   F R I E N D -                    
                                      &                                       
                       - I N T E G R A L  F E E D E R -                       
                                                                              
 v1 FN, 2020, v2 2021, v3 2022-2024                                           
------------------------------------------------------------------------------


----------------------
SHARK INTEGRAL PACKAGE
----------------------

Number of atoms                             ...      2
Number of basis functions                   ...     62
Number of shells                            ...     22
Maximum angular momentum                    ...      3
Integral batch strategy                     ... SHARK/LIBINT Hybrid
RI-J (if used) integral strategy            ... SPLIT-RIJ (Revised 2003 algorithm where possible)
Printlevel                                  ...      1
[...]
FINAL SINGLE POINT ENERGY      -109.521127156704
-------------------------   --------------------

                                *** OPTIMIZATION RUN DONE ***



           ************************************************************
           *        Program running with 4 parallel MPI-processes     *
           *              working on a common directory               *
           ************************************************************
------------------------------------------------------------------------------
                            ORCA SCF RESPONSE CALCULATION
------------------------------------------------------------------------------

GBWName                                 ... orca.gbw
Number of atoms                         ...      2
Number of basis functions               ...     62
Max core memory                         ...   4096 MB

Electric field perturbation             ...  NO
Quadrupolar field perturbation          ...  NO
Magnetic field perturbation (no GIAO)   ...  NO
Magnetic field perturbation (with GIAO) ...  NO
Linear momentum (velocity) perturbation ...  NO
Spin-orbit coupling perturbation        ...  NO
Choice of electric origin               ... Center of mass
Position of electric origin             ...     1.042907     0.000000     0.000000
Choice of magnetic origin               ... GIAO
Position of magnetic origin             ...     0.000000     0.000000     0.000000
Nuclear geometric perturbations         ... YES (   6 perturbations)
Nucleus-orbit perturbations             ...  NO (   0 perturbations)
Spin-dipole/Fermi contact perturbations ...  NO (   0 perturbations)

Total number of real perturbations      ...      6
Total number of imaginary perturbations ...      0
Total number of triplet perturbations   ...      0
Total number of SOC perturbations       ...      0

Using XC Grid                  ... (orca.grid_cpscf.tmp) 
Recalculating density on grid  ... (orca.grho_cpscf0.tmp) done
Calculating the xc-kernel      ... (orca.fxc_cpscf0.tmp) done

                                **********************
                                * REAL PERTURBATIONS *
                                **********************



-------------------
SHARK CP-SCF DRIVER
-------------------

Dimension of the orbital basis          ...     62
Dimension of the CPSCF-problem          ...    385
Number of operators                     ...      1
Max. number of iterations               ...    128
Convergence Tolerance                   ... 1.0e-04
Number of perturbations                 ...      6
Perturbation type                       ... REAL

----------------------------
POPLE LINEAR EQUATION SOLVER
----------------------------

  ITERATION   0:   ||err||_max =   2.6720e-01 (   0.1 sec   0/  6 done)
  ITERATION   1:   ||err||_max =   8.7511e-03 (   0.1 sec   0/  6 done)
  ITERATION   2:   ||err||_max =   1.3764e-03 (   0.2 sec   0/  6 done)
  ITERATION   3:   ||err||_max =   6.3876e-05 (   0.1 sec   6/  6 done)

CP-SCF equations solved in   0.5 sec
Response densities calculated in   0.0 sec

Maximum memory used throughout the entire SCFRESP-calculation: 7.0 MB


           ************************************************************
           *        Program running with 4 parallel MPI-processes     *
           *              working on a common directory               *
           ************************************************************

------------------------------------------------------------------------------
                              ORCA PROPERTY CALCULATIONS
------------------------------------------------------------------------------

GBWName                                 ... orca.gbw
Number of atoms                         ...      2
Number of basis functions               ...     62
Max core memory                         ...   4096 MB

Electric properties:
Dipole moment                           ... YES
Quadrupole moment                       ...  NO
Static polarizability (Dipole/Dipole)   ...  NO
Static polarizability (Dipole/Quad.)    ...  NO
Static polarizability (Quad./Quad.)     ...  NO
Static polarizability (Velocity)        ...  NO
Static hyperpolarizability              ...  NO

Atomic electric properties:
Dipole moment                           ...  NO
Quadrupole moment                       ...  NO
Static polarizability                   ...  NO

Choice of electric origin               ... Center of mass
Position of electric origin             ...     1.042907     0.000000     0.000000

General magnetic properties:
Magnetizability                         ...  NO

EPR properties:
g-Tensor (aka g-matrix)                 ...  NO
Zero-Field splitting spin-orbit         ...  NO
Zero-field splitting spin-spin          ...  NO
Hyperfine couplings                     ...  NO (   0 nuclei)
Quadrupole couplings                    ...  NO (   0 nuclei)
Contact density                         ...  NO (   0 nuclei)

NMR properties:
Chemical shifts                         ...  NO (   0 nuclei)
Spin-rotation constants                 ...  NO (   0 nuclei)
Spin-spin couplings                     ...  NO (   0 nuclei,    0 pairs)

Choice of magnetic origin               ... GIAO
Position of magnetic origin             ...     0.000000     0.000000     0.000000

Properties with geometric perturbations:
SCF Hessian                             ... YES
IR spectrum                             ... YES
VCD spectrum                            ...  NO
X-ray spectroscopy properties:
SCF XES/XAS/RIXS spectra                ...  NO

SCF SOC stabilization energy            ...  NO
Diagonal Born-Oppenheimer correction    ...  NO

-------------
DIPOLE MOMENT
-------------

Method             : SCF
Type of density    : Electron Density
Multiplicity       :   1
Irrep              :   0
Energy             :  -109.5211271567043525 Eh
Basis              : AO
                                X                 Y                 Z
Electronic contribution:     -0.000003023      -0.000000001      -0.000000001
Nuclear contribution   :     -0.000000000       0.000000000       0.000000000
                        -----------------------------------------
Total Dipole Moment    :     -0.000003023      -0.000000001      -0.000000001
                        -----------------------------------------
Magnitude (a.u.)       :      0.000003023
Magnitude (Debye)      :      0.000007685



--------------------
Rotational spectrum 
--------------------
 
Rotational constants in cm-1:             0.000000             2.022042             2.022042 
Rotational constants in MHz :             0.000000         60619.298963         60619.298963 

Dipole components along the rotational axes: 
x,y,z [a.u.] :    -0.000003    -0.000000    -0.000000 
x,y,z [Debye]:    -0.000008    -0.000000    -0.000000 

 

Dipole moment calculation done in   0.0 sec 

-----------
SCF HESSIAN
-----------

Occupied/Occupied contributions to the Hessian:
   => Occupied/Occupied contributions              ... done (  0.0 sec)
Perturbed density contributions to the Hessian:
   => Perturbed density contributions              ... done (  0.0 sec)
Explicit contributions to the Hessian:
   => Nuclear repulsion Hessian                    ... done (  0.0 sec)
   => HCore and overlap Hessian                    ... done (  0.0 sec)
   => RI-J Hessian                                 ... done (  0.1 sec)
   => COSX Hessian                                 ... done (  5.8 sec)
   => XC-Hessian                                   ... done (  0.3 sec)
   => Explicit contributions done
Dipole derivatives                                 ... done (  0.0 sec)
Mass weighting the Hessian           ... done
Calculating normal modes             ... done
Scaling frequencies                  ... done

-----------------------
VIBRATIONAL FREQUENCIES
-----------------------

Scaling factor for frequencies =  1.000000000  (already applied!)

     0:       0.00 cm**-1
     1:       0.00 cm**-1
     2:       0.00 cm**-1
     3:       0.00 cm**-1
     4:       0.00 cm**-1
     5:    2451.11 cm**-1


------------
NORMAL MODES
------------

These modes are the Cartesian displacements weighted by the diagonal matrix
M(i,i)=1/sqrt(m[i]) where m[i] is the mass of the displaced atom
Thus, these vectors are normalized but *not* orthogonal

                  0          1          2          3          4          5    
      0       0.000000   0.000000   0.000000   0.000000   0.000000  -0.707107
      1       0.000000   0.000000   0.000000   0.000000   0.000000   0.000000
      2       0.000000   0.000000   0.000000   0.000000   0.000000   0.000000
      3       0.000000   0.000000   0.000000   0.000000   0.000000   0.707107
      4       0.000000   0.000000   0.000000   0.000000   0.000000   0.000000
      5       0.000000   0.000000   0.000000   0.000000   0.000000   0.000000


-----------
IR SPECTRUM
-----------

 Mode   freq       eps      Int      T**2         TX        TY        TZ
       cm**-1   L/(mol*cm) km/mol    a.u.
----------------------------------------------------------------------------
  5:   2451.11   0.000000    0.00  0.000000  (-0.000001 -0.000000  0.000000)

* The epsilon (eps) is given for a Dirac delta lineshape.
** The dipole moment derivative (T) already includes vibrational overlap.

The first frequency considered to be a vibration is 5
The total number of vibrations considered is 1


--------------------------
THERMOCHEMISTRY AT 298.15K
--------------------------

Temperature         ...   298.15 K
Pressure            ...     1.00 atm
Total Mass          ...    28.01 AMU
Quasi RRHO          ...     True
Cut-Off Frequency   ...     1.00 cm^-1
The molecule is recognized as being linear

Throughout the following assumptions are being made:
  (1) The electronic state is orbitally nondegenerate
  (2) There are no thermally accessible electronically excited states
  (3) Hindered rotations indicated by low frequency modes are not
      treated as such but are treated as vibrations and this may
      cause some error
  (4) All equations used are the standard statistical mechanics
      equations for an ideal gas
  (5) All vibrations are strictly harmonic

freq.    2451.11  E(vib)   ...       0.00 

------------
INNER ENERGY
------------

The inner energy is: U= E(el) + E(ZPE) + E(vib) + E(rot) + E(trans)
    E(el)   - is the total energy from the electronic structure calculation
              = E(kin-el) + E(nuc-el) + E(el-el) + E(nuc-nuc)
    E(ZPE)  - the the zero temperature vibrational energy from the frequency calculation
    E(vib)  - the the finite temperature correction to E(ZPE) due to population
              of excited vibrational states
    E(rot)  - is the rotational thermal energy
    E(trans)- is the translational thermal energy

Summary of contributions to the inner energy U:
Electronic energy                ...   -109.52112716 Eh
Zero point energy                ...      0.00558403 Eh       3.50 kcal/mol
Thermal vibrational correction   ...      0.00000008 Eh       0.00 kcal/mol
Thermal rotational correction    ...      0.00094418 Eh       0.59 kcal/mol
Thermal translational correction ...      0.00141627 Eh       0.89 kcal/mol
-----------------------------------------------------------------------
Total thermal energy                   -109.51318259 Eh


Summary of corrections to the electronic energy:
(perhaps to be used in another calculation)
Total thermal correction                  0.00236053 Eh       1.48 kcal/mol
Non-thermal (ZPE) correction              0.00558403 Eh       3.50 kcal/mol
-----------------------------------------------------------------------
Total correction                          0.00794456 Eh       4.99 kcal/mol


--------
ENTHALPY
--------

The enthalpy is H = U + kB*T
                kB is Boltzmann's constant
Total thermal energy              ...   -109.51318259 Eh 
Thermal Enthalpy correction       ...      0.00094421 Eh       0.59 kcal/mol
-----------------------------------------------------------------------
Total Enthalpy                    ...   -109.51223838 Eh


Note: Rotational entropy computed according to Herzberg 
Infrared and Raman Spectra, Chapter V,1, Van Nostrand Reinhold, 1945 
Point Group:  D(inf)h, Symmetry Number:   2  
Rotational constants in cm-1:     0.000000     2.022044     2.022044 

Vibrational entropy computed according to the QRRHO of S. Grimme
Chem.Eur.J. 2012 18 9955 using a reference frequency of 100.0 cm-1


-------
ENTROPY
-------

The entropy contributions are T*S = T*(S(el)+S(vib)+S(rot)+S(trans))
     S(el)   - electronic entropy
     S(vib)  - vibrational entropy
     S(rot)  - rotational entropy
     S(trans)- translational entropy
The entropies will be listed as multiplied by the temperature to get
units of energy

Electronic entropy                ...      0.00000000 Eh      0.00 kcal/mol
Vibrational entropy               ...      0.00000009 Eh      0.00 kcal/mol
Rotational entropy                ...      0.00466100 Eh      2.92 kcal/mol
Translational entropy             ...      0.01706909 Eh     10.71 kcal/mol
-----------------------------------------------------------------------
Final entropy term                ...      0.02173017 Eh     13.64 kcal/mol


-------------------
GIBBS FREE ENERGY
-------------------

The Gibbs free energy is G = H - T*S

Total enthalpy                    ...   -109.51223838 Eh 
Total entropy correction          ...     -0.02173017 Eh    -13.64 kcal/mol
-----------------------------------------------------------------------
Final Gibbs free energy         ...   -109.53396856 Eh

For completeness - the Gibbs free energy minus the electronic energy
G-E(el)                           ...     -0.01284140 Eh     -8.06 kcal/mol


Maximum memory used throughout the entire PROP-calculation: 11.8 MB

--------------------------------
SUGGESTED CITATIONS FOR THIS RUN
--------------------------------

Below you find a list of papers that are relevant to this ORCA run
We neither can nor want to force you to cite these papers, but we appreciate if you do
You receive ORCA, which is the product of decades of hard work by many enthusiastic individuals, for free
The only thing we kindly ask in return is that you cite our papers,
We deeply appreciate it, if you show your appreciation for ORCA by not just citing the generic ORCA reference.

Please note that relegating all ORCA citations to the supporting information does *not* help us.
SI sections are not indexed - citations you put there will not count into any citation statistics
But we need these citations in order to attract the funding resources that allow us to do what we are doing

Therefore, if you are a happy ORCA user, please consider citing a few of the papers listed below in the main body of your paper

In addition to the list printed below, the program has created the file orca.bibtex that contains the list in bibtex format
You can import this file easily into all common literature databanks and citation aid programs

It goes without saying that in many instances, there are alternative algorithms to achieve similar
results as the ones you have gotten from ORCA. It is, of course, also the case that in some instances
ORCA just re-implements algorithms worked out by others. We are fully aware of that and we are also
fully appreciative of our colleagues work. Hence this citation list should not be read as indicating
that the listed papers, which are focused on our own work, are the only ones worth citing. It simply
meant to make it easier for users to cite ORCA specific papers. It is not a substitute for doing your
own literature research and citing the relevant literature in a scientifically appropriate manner.

List of essential papers. We consider these as the minimum necessary citations

  1. Neese, F.
     Software update: the ORCA program system, version 6.0
     WIRES Comput. Molec. Sci. 2025 15(1), e70019
     doi.org/10.1002/wcms.70019

List of papers to cite with high priority. The work reported in these papers was absolutely
necessary for this run to complete.
Our perspective: the developers of density functionals and basis sets usually get cited in chemistry papers
Good! But without the algorithms to do something with them, the functionals or basis sets would not do anything.
Hence, in our opinion, the algorithm design and method developments papers are equally worthy of getting cited

  1. Neese, F.
     An improvement of the resolution of the identity approximation for the formation of the Coulomb matrix
     J. Comp. Chem. 2003 24(14), 1740-1747
     doi.org/10.1002/jcc.10318
  2. Neese, F.; Wennmohs, F.; Hansen, A.; Becker, U.
     Efficient, approximate and parallel Hartree-Fock and hybrid DFT calculations. A 'chain-of-spheres' algorithm for the Hartree-Fock exchange
     Chem. Phys. 2009 356(1-3), 98-109
     doi.org/10.1016/j.chemphys.2008.10.036
  3. Bykov, D.; Petrenko, T.; Izsak, R.; Kossmann, S.; Becker, U.; Valeev, E.; Neese, F.
     Efficient implementation of the analytic second derivatives of Hartree-Fock and hybrid DFT energies: a detailed analysis of different approximations
     Molec. Phys. 2015 113 , 1961-1977
     doi.org/10.1080/00268976.2015.1025114
  4. Helmich-Paris, B.; de Souza, B.; Neese, F.; Izsák, R.
     An improved chain of spheres for exchange algorithm
     J. Chem. Phys. 2021 155(10), 104109
     doi.org/10.1063/5.0058766
  5. Neese, F.
     The SHARK Integral Generation and Digestion System
     J. Comp. Chem. 2022 44(3), 381
     doi.org/10.1002/jcc.26942

List of suggested additional citations. These are papers that are important in the 'surrounding' of 
of this run, or papers that preceded the highly important papers. If you like your results we are grateful for a citation.

  1. Izsak, R.; Neese, F.
     An overlap fitted chain of spheres exchange method
     J. Chem. Phys. 2011 135 , 144105
     doi.org/10.1063/1.3646921
  2. Izsak, R.; Hansen, A.; Neese, F.
     The resolution of identity and chain of spheres approximations for the LPNO-CCSD singles Fock term
     Molec. Phys. 2012 110 , 2413-2417
     doi.org/10.1080/00268976.2012.687466
  3. Neese, F.
     The ORCA program system
     WIRES Comput. Molec. Sci. 2012 2(1), 73-78
     doi.org/10.1002/wcms.81
  4. Izsak, R.; Neese, F.; Klopper, W.
     Robust fitting techniques in the chain of spheres approximation to the Fock exchange: The role of the complementary space
     J. Chem. Phys. 2013 139 , 
     doi.org/10.1063/1.4819264
  5. Neese, F.
     Software update: the ORCA program system, version 4.0
     WIRES Comput. Molec. Sci. 2018 8(1), 1-6
     doi.org/10.1002/wcms.1327
  6. Neese, F.; Wennmohs, F.; Becker, U.; Riplinger, C.
     The ORCA quantum chemistry program package
     J. Chem. Phys. 2020 152(22), 224108
     doi.org/10.1063/5.0004608
  7. Neese, F.
     Software update: The ORCA program system—Version 5.0
     WIRES Comput. Molec. Sci. 2022 12(1), e1606
     doi.org/10.1002/wcms.1606

List of optional additional citations

  1. Neese, F.
     Approximate second-order SCF convergence for spin unrestricted wavefunctions
     Chem. Phys. Lett. 2000 325(1-3), 93-98
     doi.org/10.1016/s0009-2614(00)00662-x

Timings for individual modules:

Sum of individual times          ...       22.390 sec (=   0.373 min)
Startup calculation              ...        2.223 sec (=   0.037 min)   9.9 %
SCF iterations                   ...        6.919 sec (=   0.115 min)  30.9 %
Property integrals               ...        2.517 sec (=   0.042 min)  11.2 %
SCF Response                     ...        0.951 sec (=   0.016 min)   4.2 %
Property calculations            ...        6.712 sec (=   0.112 min)  30.0 %
SCF Gradient evaluation          ...        3.055 sec (=   0.051 min)  13.6 %
Geometry relaxation              ...        0.012 sec (=   0.000 min)   0.1 %
                             ****ORCA TERMINATED NORMALLY****
TOTAL RUN TIME: 0 days 0 hours 0 minutes 24 seconds 56 msec
