
                                 *****************
                                 * O   R   C   A *
                                 *****************

                                            #,                                       
                                            ###                                      
                                            ####                                     
                                            #####                                    
                                            ######                                   
                                           ########,                                 
                                     ,,################,,,,,                         
                               ,,#################################,,                 
                          ,,##########################################,,             
                       ,#########################################, ''#####,          
                    ,#############################################,,   '####,        
                  ,##################################################,,,,####,       
                ,###########''''           ''''###############################       
              ,#####''   ,,,,##########,,,,          '''####'''          '####       
            ,##' ,,,,###########################,,,                        '##       
           ' ,,###''''                  '''############,,,                           
         ,,##''                                '''############,,,,        ,,,,,,###''
      ,#''                                            '''#######################'''  
     '                                                          ''''####''''         
             ,#######,   #######,   ,#######,      ##                                
            ,#'     '#,  ##    ##  ,#'     '#,    #''#        ,####,    ,#,          
            ##       ##  ##   ,#'  ##            #'  '#       #'       ,# #          
            ##       ##  #######   ##           ,######,      #####,      #          
            '#,     ,#'  ##    ##  '#,     ,#' ,#      #,     #,   #      #          
             '#######'   ##     ##  '#######'  #'      '#     '####' #    #          



                #########################################################
                #                        -***-                          #
                #          Department of theory and spectroscopy        #
                #                                                       #
                #                      Frank Neese                      #
                #                                                       #
                #     Directorship, Architecture, Infrastructure        #
                #                    SHARK, DRIVERS                     #
                #        Core code/Algorithms in most modules           #
                #                                                       #
                #        Max Planck Institute fuer Kohlenforschung      #
                #                Kaiser Wilhelm Platz 1                 #
                #                 D-45470 Muelheim/Ruhr                 #
                #                      Germany                          #
                #                                                       #
                #                  All rights reserved                  #
                #                        -***-                          #
                #########################################################


                         Program Version 6.1.1  -  RELEASE   -
                                (GIT: $487d211c$)
                          ($2025-11-21 10:33:24 +0100$)
                                                                         
                                  - NO-DMRG VERSION -                    
                                                                         


 With contributions from (in alphabetic order):
[Max-Planck-Institut fuer Kohlenforschung]                               
  Daniel Aravena         : Magnetic Suceptibility                        
  Michael Atanasov       : Ab Initio Ligand Field Theory (pilot matlab implementation)
  Alexander A. Auer      : GIAO ZORA, VPT2 properties, NMR spectrum      
  Ute Becker             : All parallelization in ORCA, NUMFREQ, NUMCALC 
  Giovanni Bistoni       : ED, misc. LED, open-shell LED, HFLD           
  Dmytro Bykov           : pre 5.0 version of the SCF Hessian            
  Marcos Casanova-Páez   : Triplet and SCS-CIS(D). UHF-(DLPNO)-IP/EA/STEOM-CCSD. UHF-CVS-IP/STEOM-CCSD   
  Vijay G. Chilkuri      : MRCI spin determinant printing, contributions to CSF-ICE 
  Pauline Colinet        : FMM embedding                                 
  Dipayan Datta          : RHF DLPNO-CCSD density                        
  Achintya Kumar Dutta   : EOM-CC, STEOM-CC                              
  Nicolas Foglia         : Exact transition moments, OPA infrastructure, MCD improvements    
  Dmitry Ganyushin       : Spin-Orbit,Spin-Spin,Magnetic field MRCI      
  Miquel Garcia-Rates    : C-PCM and meta-GGA Hessian, CCSD/C-PCM, Gaussian charge scheme 
  Tiago L. C. Gouveia    : GS-ROHF, GS-ROCIS                             
  Yang Guo               : DLPNO-NEVPT2, F12-NEVPT2, CIM, IAO-localization        
  Andreas Hansen         : Spin unrestricted coupled pair/coupled cluster methods 
  Ingolf Harden          : AUTO-CI MPn and infrastructure                
  Benjamin Helmich-Paris : MC-RPA, TRAH-(SCF,CASSCF), AVAS, COSX integrals, SCF dyn. polar., MC-PDFT, srDFT 
  Lee Huntington         : MR-EOM, pCC                                   
  Robert Izsak           : Overlap fitted RIJCOSX, COSX-SCS-MP3, EOM     
  Riya Kayal             : Wick's Theorem for AUTO-CI, AUTO-CI UHF-CCSDT 
  Emily Kempfer          : AUTO-CI RHF CISDT and CCSDT, approximate NEVPT4
  Christian Kollmar      : KDIIS, OOCD, Brueckner-CCSD(T), CCSD density, CASPT2, CASPT2-K, improved NEVPT2 
  Axel Koslowski         : Symmetry handling                             
  Simone Kossmann        : meta-GGA functionals, TD-DFT gradient, OOMP2, (MP2 Hessian; deprecated post 5.0) 
  Lucas Lang             : DCDCAS, Hyperfine gauge corrections, ICE-SOC+SSC
  Marvin Lechner         : AUTO-CI (C++ implementation), FIC-MRCC        
  Spencer Leger          : CASSCF response                               
  Dagmar Lenk            : GEPOL surface, SMD, ORCA-2-JSON               
  Dimitrios Liakos       : Extrapolation schemes; Compound Job, Property file
  Dimitrios Manganas     : Further ROCIS development; embedding schemes. LFT, Crystal Embedding 
  Dimitrios Pantazis     : SARC Basis sets                               
  Anastasios Papadopoulos: AUTO-CI, single reference methods and gradients 
  Taras Petrenko         : pre 6.0 DFT Hessian and TD-DFT gradient,  ECA, NRVS 
  Petra Pikulova         : Analytic Raman intensities                    
  Peter Pinski           : DLPNO-MP2, DLPNO-MP2 Gradient                 
  Shashank Vittal Rao    : ES-AILFT, MagRelax                            
  Christoph Reimann      : Effective Core Potentials                     
  Marius Retegan         : Local ZFS, SOC                                
  Christoph Riplinger    : Optimizer, TS searches, QM/MM, DLPNO-CCSD(T), (RO)-DLPNO pert. Triples 
  Michael Roemelt        : Original ROCIS implementation, recursive CI coupling coefficients
  Masaaki Saitow         : Open-shell DLPNO-CCSD energy and density      
  Barbara Sandhoefer     : DKH picture change effects                    
  Yorick L. A. Schmerwitz: GMF and freeze-and-release deltaSCF, NEB S-IDPP initial path                    
  Kantharuban Sivalingam : CASSCF convergence/infrastructure, NEVPT2, NEVPT3, NEVPT4(SD), FIC-MRCI and CEPA variants
  Bernardo de Souza      : ESD, SOC TD-DFT                               
  Georgi L. Stoychev     : AutoAux, RI-MP2 NMR, DLPNO-MP2 response, X2C  
  Van Anh Tran           : RI-MP2 g-tensors                              
  Willem Van den Heuvel  : Paramagnetic NMR                              
  Zikuan Wang            : NOTCH, Electric field optimization            
  Frank Wennmohs         : Technical directorship and infrastructure     
  Hang Xu                : AUTO-CI-Response properties                   
                                                                         
[FACCTs GmbH]                                                            
  Markus Bursch, Nicolas Foglia, Miquel Garcia-Rates, Ingolf Harden, Hagen Neugebauer, Anastasios Papadopoulos, 
  Christoph Riplinger, Bernardo de Souza, Georgi L. Stoychev                                                    
                                                                 
  APM, various basis sets, CI-OPT, improved COSX, DLPNO-Multilevel,           
  DOCKER, DRACO, updates on ESD, Fragmentator, GOAT, IRC, LR-CPCM, L-BFGS, MBIS, meta-GGA TD-DFT gradient, ML-optimized integration grids, 
  MM, NACMEs, nearIR, NEB, NEB-TS, NL-DFT gradient (VV10), 2- and 3-layer-ONIOM, interface openCOSMO-RS, QMMM,   
  Crystal-QMMM, RESP, rigid body optimization, SF, symmetry and pop. for TD-DFT, various functionals, SOLVATOR                                   
                                                                         
[Other institutions]                                                     
  V. Asgeirsson          : NEB                                           
  Christoph Bannwarth    : sTDA-DFT, sTD-DFT, PBEh-3c, B97-3c, D3        
  Giovanni Bistoni       : ETS/NOCV, ADLD/ADEX, COVALED                  
  Martin Brehm           : Molecular dynamics                            
  Ronald Cardenas        : ETS/NOCV                                      
  Martina Colucci        : COVALED                                       
  Sebastian Ehlert       : rSCAN, r2SCAN, r2SCAN-3c, D4, dhf basis sets  
  Marvin Friede          : D4 for Fr, Ra, Ac-Lr                          
  Lars Goerigk           : TD-DFT with DH, B97 family of functionals     
  Stefan Grimme          : VdW corrections, initial TS optimization, DFT functionals, gCP, sTDA/sTD-DF 
  Waldemar Hujo          : DFT-NL                                        
  H. Jonsson             : NEB                                           
  Holger Kruse           : gCP                                           
  Marcel Mueller         : wB97X-3c, vDZP basis set                      
  Hagen Neugebauer       : wr2SCAN, Native XTB                           
  Gianluca Regni         : ADLD/ADEX                                     
  Tobias Risthaus        : pre 6.0 range-separated hybrid DFT and stability analysis
  Lukas Wittmann         : regularized MP2, r2SCAN double-hybrids, wr2SCAN        
                                                                         
We gratefully acknowledge several colleagues who have allowed us to      
interface, adapt or use parts of their codes:                            
  Ed Valeev, F. Pavosevic, A. Kumar             : LibInt (2-el integral package), F12 methods 
  Garnet Chan, S. Sharma, J. Yang, R. Olivares  : DMRG                   
  Ulf Ekstrom                                   : XCFun DFT Library      
  Mihaly Kallay                                 : mrcc  (arbitrary order and MRCC methods)
  Frank Weinhold                                : gennbo (NPA and NBO analysis)           
  Simon Mueller                                 : openCOSMO-RS                            
  Christopher J. Cramer and Donald G. Truhlar   : smd solvation model                     
  S Lehtola, MJT Oliveira, MAL Marques          : LibXC Library                           
  Liviu Ungur et al                             : ANISO software                          


 Your calculation uses the libint2 library for the computation of 2-el integrals
 For citations please refer to: http://libint.valeyev.net

 Your ORCA version has been built with support for libXC version: 7.0.0
 For citations please refer to: https://libxc.gitlab.io

 This ORCA versions uses:
   CBLAS   interface :  Fast vector & matrix operations
   LAPACKE interface :  Fast linear algebra routines
   SCALAPACK package :  Parallel linear algebra routines
   Shared memory     :  Shared parallel matrices
   BLAS/LAPACK       :  OpenBLAS 0.3.29  USE64BITINT DYNAMIC_ARCH NO_AFFINITY SkylakeX SINGLE_THREADED
        Core in use  :  SkylakeX
   Copyright (c) 2011-2014, The OpenBLAS Project


  ***********************************
  * Starting time: Mon Feb 23 02:32:44 2026
  * Host name:     adroit-13
  * Process ID:    3693190
  * Working dir.:  /scratch/network/kp0374/CBE423/2/problem_2
  ***********************************

Warning: RI is on but no J-basis has been assigned. Assigning Def2/J (nothing to worry about!)
================================================================================

----- Orbital basis set information -----
Your calculation utilizes the basis: def2-TZVP
   F. Weigend and R. Ahlrichs, Phys. Chem. Chem. Phys. 7, 3297 (2005).

----- AuxJ basis set information -----
Your calculation utilizes the auxiliary basis: def2/J
   H-Rn: F. Weigend, Phys. Chem. Chem. Phys. 8, 1057 (2006).
   Fr-Lr: K. Eichkorn, F. Weigend, O. Treutler, R. Ahlrichs; Theor. Chem. Acc. 97, 119 (1997).

================================================================================
                                        WARNINGS
                       Please study these warnings very carefully!
================================================================================

WARNING: Old DensityContainer found on disk!
         Will remove this file - 
         If you want to keep old densities, please start your calculation with a different basename. 


WARNING: your system is open-shell and RHF/RKS was chosen
  ===> : WILL SWITCH to UHF/UKS


WARNING: Geometry Optimization
  ===> : Switching off AutoStart
         For restart on a previous wavefunction, please use MOREAD

================================================================================
                                       INPUT FILE
================================================================================
NAME = orca.inp
|  1> # The first line is called the simple input and is where
|  2> # you can put many of the ORCA input arguments
|  3> ! B3LYP def2-TZVP Opt Freq NormalPrint xyzfile 
|  4> 
|  5> # This line tells ORCA to parallelize over 4 CPU cores
|  6> %pal nprocs 4 end 
|  7> 
|  8> # Here we specify the charge, spin, and coordinates
|  9> # Example coordinates are shown for an H2 molecule
| 10> *xyz 0 2
| 11> N           0.00000000000000      0.00000000000000      0.00000000000000
| 12> N           1.18309639330900      0.00000000000000      0.00000000000000
| 13> N           2.36619342976983      0.00016493794136      0.00000000000000
| 14> *
| 15> 
| 16>                          ****END OF INPUT****
================================================================================

                       *****************************
                       * Geometry Optimization Run *
                       *****************************

Geometry optimization settings:
Update method            Update   .... BFGS
Choice of coordinates    CoordSys .... (2022) Redundant Internals
Initial Hessian          InHess   .... Almloef's Model
Max. no of cycles        MaxIter  .... 50

Convergence Tolerances:
Energy Change            TolE     ....  5.0000e-06 Eh
Max. Gradient            TolMAXG  ....  3.0000e-04 Eh/bohr
RMS Gradient             TolRMSG  ....  1.0000e-04 Eh/bohr
Max. Displacement        TolMAXD  ....  4.0000e-03 bohr
RMS Displacement         TolRMSD  ....  2.0000e-03 bohr
Strict Convergence                .... False

------------------------------------------------------------------------------
                        ORCA OPTIMIZATION COORDINATE SETUP
------------------------------------------------------------------------------

The optimization will be done in redundant internal coordinates (2022)
Making redundant internal coordinates   ...  (2022 redundants) done
Evaluating the initial hessian          ...  (Almloef) done
Evaluating the coordinates              ...  done
Calculating the B-matrix                .... done
Calculating the G-matrix                .... done
The number of degrees of freedom        ....    4

    -----------------------------------------------------------------
                    Redundant Internal Coordinates


    -----------------------------------------------------------------
         Definition                    Initial Value    Approx d2E/dq
    -----------------------------------------------------------------
      1. B(N   1,N   0)                  1.1831         1.071800   
      2. B(N   2,N   1)                  1.1831         1.071798   
      3. L(N   0,N   1,N   2, 2)       180.0000         0.516578   
      4. L(N   0,N   1,N   2, 1)       179.9920         0.516578   
    -----------------------------------------------------------------

Number of atoms                         .... 3
Number of degrees of freedom            .... 4


         *************************************************************
         *                GEOMETRY OPTIMIZATION CYCLE   1            *
         *************************************************************
---------------------------------
CARTESIAN COORDINATES (ANGSTROEM)
---------------------------------
  N      0.000000    0.000000    0.000000
  N      1.183096    0.000000    0.000000
  N      2.366193    0.000165    0.000000

----------------------------
CARTESIAN COORDINATES (A.U.)
----------------------------
  NO LB      ZA    FRAG     MASS         X           Y           Z
   0 N     7.0000    0    14.007    0.000000    0.000000    0.000000
   1 N     7.0000    0    14.007    2.235728    0.000000    0.000000
   2 N     7.0000    0    14.007    4.471458    0.000312    0.000000

--------------------------------
INTERNAL COORDINATES (ANGSTROEM)
--------------------------------
 N      0   0   0     0.000000000000     0.00000000     0.00000000
 N      1   0   0     1.183096393309     0.00000000     0.00000000
 N      2   1   0     1.183097047958   179.99201228     0.00000000

---------------------------
INTERNAL COORDINATES (A.U.)
---------------------------
 N      0   0   0     0.000000000000     0.00000000     0.00000000
 N      1   0   0     2.235728173384     0.00000000     0.00000000
 N      2   1   0     2.235729410491   179.99201228     0.00000000

---------------------
BASIS SET INFORMATION
---------------------
There are 1 groups of distinct atoms

 Group   1 Type N   : 11s6p2d1f contracted to 5s3p2d1f pattern {62111/411/11/1}

Atom   0N    basis set group =>   1
Atom   1N    basis set group =>   1
Atom   2N    basis set group =>   1
---------------------------------
AUXILIARY/J BASIS SET INFORMATION
---------------------------------
There are 1 groups of distinct atoms

 Group   1 Type N   : 12s5p4d2f1g contracted to 6s4p3d1f1g pattern {711111/2111/211/2/1}

Atom   0N    basis set group =>   1
Atom   1N    basis set group =>   1
Atom   2N    basis set group =>   1


           ************************************************************
           *        Program running with 4 parallel MPI-processes     *
           *              working on a common directory               *
           ************************************************************
------------------------------------------------------------------------------
                             ORCA STARTUP CALCULATIONS
                           -- RI-GTO INTEGRALS CHOSEN --
------------------------------------------------------------------------------
------------------------------------------------------------------------------
                   ___                                                        
                  /   \      - P O W E R E D   B Y -                         
                 /     \                                                     
                 |  |  |   _    _      __       _____    __    __             
                 |  |  |  | |  | |    /  \     |  _  \  |  |  /  |          
                  \  \/   | |  | |   /    \    | | | |  |  | /  /          
                 / \  \   | |__| |  /  /\  \   | |_| |  |  |/  /          
                |  |  |   |  __  | /  /__\  \  |    /   |      \           
                |  |  |   | |  | | |   __   |  |    \   |  |\   \          
                \     /   | |  | | |  |  |  |  | |\  \  |  | \   \       
                 \___/    |_|  |_| |__|  |__|  |_| \__\ |__|  \__/        
                                                                              
                      - O R C A' S   B I G   F R I E N D -                    
                                      &                                       
                       - I N T E G R A L  F E E D E R -                       
                                                                              
 v1 FN, 2020, v2 2021, v3 2022-2024                                           
------------------------------------------------------------------------------


----------------------
SHARK INTEGRAL PACKAGE
----------------------

Number of atoms                             ...      3
Number of basis functions                   ...     93
Number of shells                            ...     33
Maximum angular momentum                    ...      3
Integral batch strategy                     ... SHARK/LIBINT Hybrid
RI-J (if used) integral strategy            ... SPLIT-RIJ (Revised 2003 algorithm where possible)
Printlevel                                  ...      1
Contraction scheme used                     ... SEGMENTED contraction
Prescreening option                         ... SCHWARTZ
   Thresh                                   ... 2.500e-11
   Tcut                                     ... 2.500e-12
   Tpresel                                  ... 2.500e-12 
Coulomb Range Separation                    ... NOT USED
Exchange Range Separation                   ... NOT USED
Multipole approximations                    ... NOT USED
Finite Nucleus Model                        ... NOT USED
CABS basis                                  ... NOT available
Auxiliary Coulomb fitting basis             ... AVAILABLE
   # of basis functions in Aux-J            ...    147
   # of shells in Aux-J                     ...     45
   Maximum angular momentum in Aux-J        ...      4
Auxiliary J/K fitting basis                 ... NOT available
Auxiliary Correlation fitting basis         ... NOT available
Auxiliary 'external' fitting basis          ... NOT available

Checking pre-screening integrals            ... done (  0.0 sec) Dimension = 33
   => SHARK Basis and OBASIS are compatible. Storing Pre-screening
Shell pair information
Shell pair cut-off parameter TPreSel        ...   2.5e-12
Total number of shell pairs                 ...       561
Shell pairs after pre-screening             ...       553
Total number of primitive shell pairs       ...      1896
Primitive shell pairs kept                  ...      1607
          la=0 lb=0:    114 shell pairs
          la=1 lb=0:    135 shell pairs
          la=1 lb=1:     45 shell pairs
          la=2 lb=0:     88 shell pairs
          la=2 lb=1:     54 shell pairs
          la=2 lb=2:     21 shell pairs
          la=3 lb=0:     45 shell pairs
          la=3 lb=1:     27 shell pairs
          la=3 lb=2:     18 shell pairs
          la=3 lb=3:      6 shell pairs

Checking whether 4 symmetric matrices of dimension 93 fit in memory
:Max Core in MB      =   4096.00
 MB in use           =      3.94
 MB left             =   4092.06
 MB needed           =      0.13
 Data fit in memory  = YES
Calculating RI/J V-Matrix + Cholesky decomp.... done (  0.0 sec)
Calculating Nuclear repulsion               ... done (  0.0 sec) ENN=     54.791976782372 Eh

Diagonalization of the overlap matrix:
Smallest eigenvalue                        ... 1.905e-04
Time for diagonalization                   ...    0.001 sec
Threshold for overlap eigenvalues          ... 1.000e-07
Number of eigenvalues below threshold      ... 0
Time for construction of square roots      ...    0.001 sec
Total time needed                          ...    0.004 sec

-------------------
DFT GRID GENERATION
-------------------

General Integration Accuracy     IntAcc      ... 4.388
Radial Grid Type                 RadialGrid  ... OptM3 with GC (2021)
Angular Grid (max. ang.)         AngularGrid ... 4 (Lebedev-302)
Angular grid pruning method      GridPruning ... 4 (adaptive)
Weight generation scheme         WeightScheme... mBecke (2022)
Basis function cutoff            BFCut       ... 1.0000e-11
Integration weight cutoff        WCut        ... 1.0000e-14
Partially contracted basis set               ... off
Rotationally invariant grid construction     ... off
Angular grids for H and He will be reduced by one unit

Total number of grid points                  ...    18344
Total number of batches                      ...      288
Average number of points per batch           ...       63
Average number of grid points per atom       ...     6115

--------------------
COSX GRID GENERATION
--------------------

GRIDX 1
-------
General Integration Accuracy     IntAcc      ... 3.816
Radial Grid Type                 RadialGrid  ... OptM3 with GC (2021)
Angular Grid (max. ang.)         AngularGrid ... 1 (Lebedev-50)
Angular grid pruning method      GridPruning ... 4 (adaptive)
Weight generation scheme         WeightScheme... mBecke (2022)
Basis function cutoff            BFCut       ... 1.0000e-11
Integration weight cutoff        WCut        ... 1.0000e-14
Partially contracted basis set               ... on
Rotationally invariant grid construction     ... off
Angular grids for H and He will be reduced by one unit

Total number of grid points                  ...     2292
Total number of batches                      ...       20
Average number of points per batch           ...      114
Average number of grid points per atom       ...      764
UseSFitting                                  ... on

GRIDX 2
-------
General Integration Accuracy     IntAcc      ... 4.020
Radial Grid Type                 RadialGrid  ... OptM3 with GC (2021)
Angular Grid (max. ang.)         AngularGrid ... 2 (Lebedev-110)
Angular grid pruning method      GridPruning ... 4 (adaptive)
Weight generation scheme         WeightScheme... mBecke (2022)
Basis function cutoff            BFCut       ... 1.0000e-11
Integration weight cutoff        WCut        ... 1.0000e-14
Partially contracted basis set               ... on
Rotationally invariant grid construction     ... off
Angular grids for H and He will be reduced by one unit

Total number of grid points                  ...     5632
Total number of batches                      ...       46
Average number of points per batch           ...      122
Average number of grid points per atom       ...     1877
UseSFitting                                  ... on

GRIDX 3
-------
General Integration Accuracy     IntAcc      ... 4.338
Radial Grid Type                 RadialGrid  ... OptM3 with GC (2021)
Angular Grid (max. ang.)         AngularGrid ... 3 (Lebedev-194)
Angular grid pruning method      GridPruning ... 4 (adaptive)
Weight generation scheme         WeightScheme... mBecke (2022)
Basis function cutoff            BFCut       ... 1.0000e-11
Integration weight cutoff        WCut        ... 1.0000e-14
Partially contracted basis set               ... on
Rotationally invariant grid construction     ... off
Angular grids for H and He will be reduced by one unit

Total number of grid points                  ...    12560
Total number of batches                      ...       99
Average number of points per batch           ...      126
Average number of grid points per atom       ...     4187
UseSFitting                                  ... on
Grids setup in   0.2 sec
Initializing property integral containers    ... done (  0.0 sec)

SHARK setup successfully completed in   0.2 seconds

Maximum memory used throughout the entire STARTUP-calculation: 13.8 MB


           ************************************************************
           *        Program running with 4 parallel MPI-processes     *
           *              working on a common directory               *
           ************************************************************
-------------------------------------------------------------------------------
                                 ORCA GUESS
                   Start orbitals & Density for SCF / CASSCF
-------------------------------------------------------------------------------

------------
SCF SETTINGS
------------
Hamiltonian:
 Density Functional     Method          .... DFT(GTOs)
 Exchange Functional    Exchange        .... B88
   X-Alpha parameter    XAlpha          ....  0.666667
   Becke's b parameter  XBeta           ....  0.004200
 Correlation Functional Correlation     .... LYP
 LDA part of GGA corr.  LDAOpt          .... VWN-5
 Gradients option       PostSCFGGA      .... off
 Hybrid DFT is turned on
   Fraction HF Exchange ScalHFX         ....  0.200000
   Scaling of DF-GGA-X  ScalDFX         ....  0.720000
   Scaling of DF-GGA-C  ScalDFC         ....  0.810000
   Scaling of DF-LDA-C  ScalLDAC        ....  1.000000
   Perturbative correction              ....  0.000000
   NL short-range parameter             ....  4.800000
 RI-approximation to the Coulomb term is turned on
   Number of AuxJ basis functions       .... 147
   RIJ-COSX (HFX calculated with COS-X)).... on


General Settings:
 Integral files         IntName         .... orca
 Hartree-Fock type      HFTyp           .... UHF
 Total Charge           Charge          ....    0
 Multiplicity           Mult            ....    2
 Number of Electrons    NEL             ....   21
 Basis Dimension        Dim             ....   93
 Nuclear Repulsion      ENuc            ....     54.7919767824 Eh

Convergence Acceleration:
 AO-DIIS                CNVDIIS         .... on
   Start iteration      DIISMaxIt       ....    12
   Startup error        DIISStart       ....  0.200000
   # of expansion vecs  DIISMaxEq       ....     5
   Bias factor          DIISBfac        ....   1.050
   Max. coefficient     DIISMaxC        ....  10.000
 MO-DIIS                CNVKDIIS        .... off
 Trust-Rad. Augm. Hess. CNVTRAH         .... auto
   Auto Start mean grad. ratio tolernc. ....  1.125000
   Auto Start start iteration           ....    50
   Auto Start num. interpolation iter.  ....    10
   Max. Number of Micro iterations      ....    24
   Max. Number of Macro iterations      .... Maxiter - #DIIS iter
   Number of Davidson start vectors     ....     2
   Converg. threshold    (grad. norm)   ....   1.000e-05
   Grad. Scal. Fac. for Micro threshold ....   0.100
   Minimum threshold for Micro iter.    ....   1.000e-02
   NR start threshold (gradient norm)   ....   1.000e-04
   Initial trust radius                 ....   0.400
   Minimum AH scaling param. (alpha)    ....   1.000
   Maximum AH scaling param. (alpha)    .... 1000.000
   Quad. conv. algorithm                .... NR
   White noise on init. David. guess    .... on
   Maximum white noise                  ....   0.010
   Pseudo random numbers                .... off
   Inactive MOs                         .... canonical
   Orbital update algorithm             .... Taylor
   Preconditioner                       .... Diag
   Full preconditioner red. dimension   ....   250
 SOSCF                 CNVSOSCF           .... on
   Start iteration     SOSCFMaxIt         ....   150
   Startup grad/error  SOSCFStart         ....  0.003300
   Hessian update      SOSCFHessUp        .... L-BFGS
   Autom. constraints  SOSCFAutoConstrain .... off
 Level Shifting         CNVShift        .... on
   Level shift para.    LevelShift      ....    0.2500
   Turn off err/grad.   ShiftErr        ....    0.0010
 Zerner damping         CNVZerner       .... off
 Static damping         CNVDamp         .... on
   Fraction old density DampFac         ....    0.7000
   Max. Damping (<1)    DampMax         ....    0.9800
   Min. Damping (>=0)   DampMin         ....    0.0000
   Turn off err/grad.   DampErr         ....    0.1000

SCF Procedure:
 Maximum # iterations   MaxIter         ....   125
 SCF integral mode      SCFMode         .... Direct
   Integral package                     .... SHARK and LIBINT hybrid scheme
 Reset frequency        DirectResetFreq ....    20
 Integral Threshold     Thresh          ....  2.500e-11 Eh
 Primitive CutOff       TCut            ....  2.500e-12 Eh

Convergence Tolerance:
 Convergence Check Mode ConvCheckMode   .... Total+1el-Energy
 Convergence forced     ConvForced      .... 0
 Energy Change          TolE            ....  1.000e-08 Eh
 1-El. energy change                    ....  1.000e-05 Eh
 Orbital Gradient       TolG            ....  1.000e-05
 Orbital Rotation angle TolX            ....  1.000e-05
 DIIS Error             TolErr          ....  5.000e-07

------------------------------
INITIAL GUESS: MODEL POTENTIAL
------------------------------
Loading Hartree-Fock densities                     ... done
Calculating cut-offs                               ... done
Initializing the effective Hamiltonian             ... done
Setting up the integral package (SHARK)            ... done
Starting the Coulomb interaction                   ... done (   0.0 sec)
Making the grid                                    ... done (   0.0 sec)
Mapping shells                                     ... done
Starting the XC term evaluation                    ... done (   0.0 sec)
  promolecular density results
     # of electrons  =     21.000031694
     EX              =    -19.609845300
     EC              =     -0.733557158
     EX+EC           =    -20.343402458
Transforming the Hamiltonian                       ... done (   0.0 sec)
Diagonalizing the Hamiltonian                      ... done (   0.0 sec)
Back transforming the eigenvectors                 ... done (   0.0 sec)
Now organizing SCF variables                       ... done
                      ------------------
                      INITIAL GUESS DONE (   0.0 sec)
                      ------------------
             **** ENERGY FILE WAS UPDATED (orca.en.tmp) ****
Finished Guess after   0.2 sec
Maximum memory used throughout the entire GUESS-calculation: 7.9 MB


           ************************************************************
           *        Program running with 4 parallel MPI-processes     *
           *              working on a common directory               *
           ************************************************************

-------------------------------------------------------------------------------------------
                                      ORCA LEAN-SCF
                              memory conserving SCF solver
-------------------------------------------------------------------------------------------

----------------------------------------D-I-I-S--------------------------------------------
Iteration    Energy (Eh)           Delta-E    RMSDP     MaxDP     DIISErr   Damp  Time(sec)
-------------------------------------------------------------------------------------------
               ***  Starting incremental Fock matrix formation  ***
    1    -164.0934926797242497     0.00e+00  1.93e-03  2.22e-02  6.78e-02  0.700   0.3
Warning: op=1 Small HOMO/LUMO gap (   0.088) - skipping pre-diagonalization
         Will do a full diagonalization
    2    -164.1083835597108020    -1.49e-02  1.57e-03  2.09e-02  3.85e-02  0.700   0.2
                               ***Turning on AO-DIIS***
    3    -164.1147084428183689    -6.32e-03  8.02e-04  1.00e-02  2.08e-02  0.700   0.2
    4    -164.1187995639076291    -4.09e-03  1.43e-03  1.59e-02  1.50e-02  0.000   0.2
    5    -164.1284086049157338    -9.61e-03  2.25e-04  3.17e-03  4.79e-03  0.000   0.2
                              *** Initializing SOSCF ***
---------------------------------------S-O-S-C-F--------------------------------------
Iteration    Energy (Eh)           Delta-E    RMSDP     MaxDP     MaxGrad    Time(sec)
--------------------------------------------------------------------------------------
    6    -164.1285635151271549    -1.55e-04  1.23e-04  1.79e-03  2.05e-03     0.2
               *** Restarting incremental Fock matrix formation ***
    7    -164.1286199994527806    -5.65e-05  6.32e-05  1.05e-03  1.61e-03     0.3
    8    -164.1286310254236298    -1.10e-05  7.76e-05  1.28e-03  1.07e-03     0.3
    9    -164.1286319658638604    -9.40e-07  3.46e-05  5.11e-04  1.11e-03     0.3
   10    -164.1286352502161776    -3.28e-06  7.99e-06  8.92e-05  7.05e-05     0.3
   11    -164.1286352813602036    -3.11e-08  3.33e-06  3.63e-05  4.58e-05     0.2
   12    -164.1286353020025786    -2.06e-08  4.21e-07  4.69e-06  5.07e-06     0.2
   13    -164.1286353020937554    -9.12e-11  5.32e-07  5.71e-06  5.06e-06     0.2
                 **** Energy Check signals convergence ****

               *****************************************************
               *                     SUCCESS                       *
               *           SCF CONVERGED AFTER  13 CYCLES          *
               *****************************************************

Recomputing exchange energy using gridx3       ... done (    0.284 sec)
Old exchange energy                            :     -3.926663336 Eh
New exchange energy                            :     -3.926660099 Eh
Exchange energy change after final integration :      0.000003237 Eh
Total energy after final integration           :   -164.128632065 Eh
             **** ENERGY FILE WAS UPDATED (orca.en.tmp) ****

----------------
TOTAL SCF ENERGY
----------------

Total Energy       :       -164.12863206452769 Eh           -4466.16713 eV

Components:
Nuclear Repulsion  :         54.79197678237244 Eh            1490.96549 eV
Electronic Energy  :       -218.92061208387651 Eh           -5957.13271 eV
One Electron Energy:       -329.84330478507229 Eh           -8975.49263 eV
Two Electron Energy:        110.92269270119579 Eh            3018.35992 eV

Virial components:
Potential Energy   :       -327.57259732442799 Eh           -8913.70354 eV
Kinetic Energy     :        163.44396525990032 Eh            4447.53640 eV
Virial Ratio       :          2.00418900020896

DFT components:
N(Alpha)           :       11.000001489053 electrons
N(Beta)            :       10.000001152440 electrons
N(Total)           :       21.000002641493 electrons
E(X)               :      -15.697983677900 Eh       
E(C)               :       -0.860997758314 Eh       
E(XC)              :      -16.558981436214 Eh       

---------------
SCF CONVERGENCE
---------------

  Last Energy change         ...    9.1177e-11  Tolerance :   1.0000e-08
  Last MAX-Density change    ...    5.7143e-06  Tolerance :   1.0000e-07
  Last RMS-Density change    ...    5.3194e-07  Tolerance :   5.0000e-09
  Last DIIS Error            ...    2.0528e-03  Tolerance :   5.0000e-07
  Last Orbital Gradient      ...    5.0592e-06  Tolerance :   1.0000e-05
  Last Orbital Rotation      ...    1.4121e-05  Tolerance :   1.0000e-05


----------------------
UHF SPIN CONTAMINATION
----------------------

Warning: in a DFT calculation there is little theoretical justification to 
         calculate <S**2> as in Hartree-Fock theory. We will do it anyways
         but you should keep in mind that the values have only limited relevance

Expectation value of <S**2>     :     0.771163
Ideal value S*(S+1) for S=0.5   :     0.750000
Deviation                       :     0.021163

----------------
ORBITAL ENERGIES
----------------
                 SPIN UP ORBITALS
  NO   OCC          E(Eh)            E(eV) 
   0   1.0000     -14.512418      -394.9030 
   1   1.0000     -14.427553      -392.5937 
   2   1.0000     -14.427517      -392.5927 
   3   1.0000      -1.173165       -31.9234 
   4   1.0000      -1.017055       -27.6755 
   5   1.0000      -0.554403       -15.0861 
   6   1.0000      -0.537191       -14.6177 
   7   1.0000      -0.528352       -14.3772 
   8   1.0000      -0.472218       -12.8497 
   9   1.0000      -0.343982        -9.3602 
  10   1.0000      -0.306676        -8.3451 
  11   0.0000      -0.035031        -0.9532 
  12   0.0000      -0.015097        -0.4108 
  13   0.0000       0.111882         3.0445 
  14   0.0000       0.241004         6.5580 
  15   0.0000       0.261031         7.1030 
  16   0.0000       0.273755         7.4493 
  17   0.0000       0.274312         7.4644 
  18   0.0000       0.318895         8.6776 
  19   0.0000       0.338281         9.2051 
  20   0.0000       0.355279         9.6676 
  21   0.0000       0.368521        10.0280 

                 SPIN DOWN ORBITALS
  NO   OCC          E(Eh)            E(eV) 
   0   1.0000     -14.516914      -395.0253 
   1   1.0000     -14.415223      -392.2582 
   2   1.0000     -14.415195      -392.2574 
   3   1.0000      -1.162020       -31.6202 
   4   1.0000      -0.989687       -26.9308 
   5   1.0000      -0.536114       -14.5884 
   6   1.0000      -0.524484       -14.2719 
   7   1.0000      -0.503982       -13.7140 
   8   1.0000      -0.452992       -12.3265 
   9   1.0000      -0.291191        -7.9237 
  10   0.0000      -0.195019        -5.3067 
  11   0.0000      -0.010923        -0.2972 
  12   0.0000       0.014051         0.3824 
  13   0.0000       0.119310         3.2466 
  14   0.0000       0.245211         6.6725 
  15   0.0000       0.276704         7.5295 
  16   0.0000       0.280167         7.6237 
  17   0.0000       0.281799         7.6682 
  18   0.0000       0.324153         8.8206 
  19   0.0000       0.343609         9.3501 
  20   0.0000       0.372449        10.1348 
*Only the first 10 virtual orbitals were printed.

                    ********************************
                    * MULLIKEN POPULATION ANALYSIS *
                    ********************************

--------------------------------------------
MULLIKEN ATOMIC CHARGES AND SPIN POPULATIONS
--------------------------------------------
   0 N :   -0.184448    0.598189
   1 N :    0.368875   -0.196378
   2 N :   -0.184426    0.598189
Sum of atomic charges         :   -0.0000000
Sum of atomic spin populations:    1.0000000

-----------------------------------------------------
MULLIKEN REDUCED ORBITAL CHARGES AND SPIN POPULATIONS
-----------------------------------------------------
CHARGE
  0 N s       :     3.986365  s :     3.986365
      pz      :     1.344667  p :     3.137332
      px      :     0.942826
      py      :     0.849838
      dz2     :     0.004607  d :     0.056504
      dxz     :     0.018789
      dyz     :     0.000000
      dx2y2   :     0.014471
      dxy     :     0.018637
      f0      :     0.000673  f :     0.004248
      f+1     :     0.000624
      f-1     :     0.000145
      f+2     :     0.000811
      f-2     :     0.000000
      f+3     :     0.000778
      f-3     :     0.001216

  1 N s       :     3.280990  s :     3.280990
      pz      :     1.187701  p :     3.200622
      px      :     0.791292
      py      :     1.221630
      dz2     :     0.006282  d :     0.137224
      dxz     :     0.078143
      dyz     :     0.000000
      dx2y2   :     0.018238
      dxy     :     0.034560
      f0      :     0.001726  f :     0.012289
      f+1     :     0.001543
      f-1     :     0.000317
      f+2     :     0.002558
      f-2     :     0.000000
      f+3     :     0.002315
      f-3     :     0.003830

  2 N s       :     3.986366  s :     3.986366
      pz      :     1.344656  p :     3.137309
      px      :     0.942823
      py      :     0.849830
      dz2     :     0.004607  d :     0.056504
      dxz     :     0.018789
      dyz     :     0.000000
      dx2y2   :     0.014471
      dxy     :     0.018637
      f0      :     0.000673  f :     0.004248
      f+1     :     0.000624
      f-1     :     0.000145
      f+2     :     0.000811
      f-2     :     0.000000
      f+3     :     0.000778
      f-3     :     0.001216


SPIN
  0 N s       :     0.025778  s :     0.025778
      pz      :     0.015141  p :     0.571163
      px      :     0.000739
      py      :     0.555283
      dz2     :     0.000047  d :     0.001888
      dxz     :     0.000290
      dyz     :     0.000000
      dx2y2   :     0.000755
      dxy     :     0.000796
      f0      :     0.000156  f :    -0.000641
      f+1     :     0.000084
      f-1     :     0.000090
      f+2     :    -0.000247
      f-2     :     0.000000
      f+3     :    -0.000357
      f-3     :    -0.000367

  1 N s       :    -0.019775  s :    -0.019775
      pz      :    -0.028496  p :    -0.209974
      px      :    -0.034642
      py      :    -0.146837
      dz2     :    -0.000030  d :     0.032415
      dxz     :    -0.002329
      dyz     :    -0.000000
      dx2y2   :     0.000214
      dxy     :     0.034560
      f0      :     0.000007  f :     0.000956
      f+1     :     0.000048
      f-1     :     0.000021
      f+2     :     0.000140
      f-2     :     0.000000
      f+3     :     0.000091
      f-3     :     0.000650

  2 N s       :     0.025779  s :     0.025779
      pz      :     0.015142  p :     0.571163
      px      :     0.000739
      py      :     0.555282
      dz2     :     0.000047  d :     0.001888
      dxz     :     0.000290
      dyz     :     0.000000
      dx2y2   :     0.000755
      dxy     :     0.000796
      f0      :     0.000156  f :    -0.000641
      f+1     :     0.000084
      f-1     :     0.000090
      f+2     :    -0.000247
      f-2     :     0.000000
      f+3     :    -0.000357
      f-3     :    -0.000367


------------------------
MULLIKEN OVERLAP CHARGES
------------------------
B(  0-N ,  1-N ) :   0.5565 B(  0-N ,  2-N ) :  -0.2545 B(  1-N ,  2-N ) :   0.5565 



                     *******************************
                     * LOEWDIN POPULATION ANALYSIS *
                     *******************************

-------------------------------------------
LOEWDIN ATOMIC CHARGES AND SPIN POPULATIONS
-------------------------------------------
   0 N :   -0.006243    0.507252
   1 N :    0.012466   -0.014504
   2 N :   -0.006223    0.507252

----------------------------------------------------
LOEWDIN REDUCED ORBITAL CHARGES AND SPIN POPULATIONS
----------------------------------------------------
CHARGE
  0 N s       :     3.421526  s :     3.421526
      pz      :     1.286181  p :     3.394117
      px      :     1.272973
      py      :     0.834963
      dz2     :     0.018600  d :     0.165124
      dxz     :     0.044216
      dyz     :     0.000000
      dx2y2   :     0.056397
      dxy     :     0.045912
      f0      :     0.002870  f :     0.025476
      f+1     :     0.003967
      f-1     :     0.000518
      f+2     :     0.004590
      f-2     :     0.000000
      f+3     :     0.006282
      f-3     :     0.007251

  1 N s       :     2.967835  s :     2.967835
      pz      :     1.074457  p :     3.487330
      px      :     1.316844
      py      :     1.096029
      dz2     :     0.034832  d :     0.501911
      dxz     :     0.243303
      dyz     :     0.000000
      dx2y2   :     0.103279
      dxy     :     0.120497
      f0      :     0.002531  f :     0.030458
      f+1     :     0.006770
      f-1     :     0.000425
      f+2     :     0.004002
      f-2     :     0.000000
      f+3     :     0.010956
      f-3     :     0.005773

  2 N s       :     3.421526  s :     3.421526
      pz      :     1.286171  p :     3.394097
      px      :     1.272970
      py      :     0.834956
      dz2     :     0.018600  d :     0.165124
      dxz     :     0.044215
      dyz     :     0.000000
      dx2y2   :     0.056397
      dxy     :     0.045912
      f0      :     0.002870  f :     0.025476
      f+1     :     0.003967
      f-1     :     0.000518
      f+2     :     0.004590
      f-2     :     0.000000
      f+3     :     0.006282
      f-3     :     0.007251


SPIN
  0 N s       :     0.005919  s :     0.005919
      pz      :     0.011971  p :     0.511563
      px      :     0.000369
      py      :     0.499223
      dz2     :    -0.000390  d :    -0.007722
      dxz     :    -0.001206
      dyz     :     0.000000
      dx2y2   :     0.000426
      dxy     :    -0.006552
      f0      :    -0.000019  f :    -0.002508
      f+1     :    -0.000002
      f-1     :    -0.000033
      f+2     :    -0.000336
      f-2     :     0.000000
      f+3     :    -0.000472
      f-3     :    -0.001646

  1 N s       :    -0.008684  s :    -0.008684
      pz      :    -0.020788  p :    -0.133879
      px      :    -0.007901
      py      :    -0.105190
      dz2     :     0.001645  d :     0.124264
      dxz     :    -0.000593
      dyz     :    -0.000000
      dx2y2   :     0.002716
      dxy     :     0.120496
      f0      :     0.000190  f :     0.003796
      f+1     :     0.000322
      f-1     :     0.000164
      f+2     :     0.000375
      f-2     :     0.000000
      f+3     :     0.000203
      f-3     :     0.002542

  2 N s       :     0.005919  s :     0.005919
      pz      :     0.011971  p :     0.511563
      px      :     0.000369
      py      :     0.499223
      dz2     :    -0.000390  d :    -0.007722
      dxz     :    -0.001206
      dyz     :     0.000000
      dx2y2   :     0.000426
      dxy     :    -0.006552
      f0      :    -0.000019  f :    -0.002508
      f+1     :    -0.000002
      f-1     :    -0.000033
      f+2     :    -0.000336
      f-2     :     0.000000
      f+3     :    -0.000472
      f-3     :    -0.001646


---------------------------------
LOEWDIN BOND ORDERS (THRESH 0.050000)
---------------------------------
B(  0-N ,  1-N ) :   2.6441 B(  0-N ,  2-N ) :   0.4586 B(  1-N ,  2-N ) :   2.6441 


------------------------------------------
LOEWDIN REDUCED ORBITAL POPULATIONS PER MO
-------------------------------------------
THRESHOLD FOR PRINTING IS 0.1%%
SPIN UP
                      0         1         2         3         4         5   
                 -14.51242 -14.42755 -14.42752  -1.17316  -1.01706  -0.55440
                   1.00000   1.00000   1.00000   1.00000   1.00000   1.00000
                  --------  --------  --------  --------  --------  --------
 0 N  s               0.0      21.1      78.4      16.4      19.5       0.0
 0 N  px              0.1       0.0       0.0       9.2       4.7       0.0
 0 N  py              0.0       0.0       0.0       0.0       0.0      22.8
 0 N  dz2             0.1       0.0       0.0       0.4       0.1       0.0
 0 N  dx2y2           0.2       0.0       0.0       1.1       0.2       0.0
 0 N  dxy             0.0       0.0       0.0       0.0       0.0       1.9
 0 N  f-3             0.0       0.0       0.0       0.0       0.0       0.3
 1 N  s              99.0       0.0       0.1      42.3       0.0       0.0
 1 N  px              0.0       0.3       0.0       0.0      50.1       0.0
 1 N  py              0.0       0.0       0.0       0.0       0.0      49.5
 1 N  dz2             0.0       0.0       0.1       0.8       0.0       0.0
 1 N  dx2y2           0.0       0.0       0.4       2.3       0.0       0.0
 1 N  f+1             0.0       0.1       0.0       0.0       0.3       0.0
 1 N  f+3             0.0       0.1       0.0       0.0       0.4       0.0
 1 N  f-3             0.0       0.0       0.0       0.0       0.0       0.4
 2 N  s               0.0      78.5      21.0      16.4      19.5       0.0
 2 N  px              0.1       0.0       0.0       9.2       4.7       0.0
 2 N  py              0.0       0.0       0.0       0.0       0.0      22.8
 2 N  dz2             0.1       0.0       0.0       0.4       0.1       0.0
 2 N  dx2y2           0.2       0.0       0.0       1.1       0.2       0.0
 2 N  dxy             0.0       0.0       0.0       0.0       0.0       1.9
 2 N  f-3             0.0       0.0       0.0       0.0       0.0       0.3

                      6         7         8         9        10        11   
                  -0.53719  -0.52835  -0.47222  -0.34398  -0.30668  -0.03503
                   1.00000   1.00000   1.00000   1.00000   1.00000   0.00000
                  --------  --------  --------  --------  --------  --------
 0 N  s               0.0      22.1      13.8       0.0       0.0       0.0
 0 N  pz             21.0       0.0       0.0       0.0      43.9       0.0
 0 N  px              0.0      21.6      28.1       0.0       0.0       0.0
 0 N  py              0.0       0.0       0.0      43.9       0.0      24.4
 0 N  dz2             0.0       0.2       0.1       0.0       0.0       0.0
 0 N  dxz             2.1       0.0       0.0       0.0       0.0       0.0
 0 N  dx2y2           0.0       1.0       0.4       0.0       0.0       0.0
 0 N  dxy             0.0       0.0       0.0       0.0       0.0       6.2
 0 N  f0              0.1       0.0       0.0       0.0       0.0       0.0
 0 N  f+2             0.2       0.0       0.0       0.0       0.0       0.0
 0 N  f-3             0.0       0.0       0.0       0.0       0.0       0.9
 1 N  s               0.0       6.6       0.0       0.0       0.0       0.0
 1 N  pz             52.7       0.0       0.0       0.0       0.0       0.0
 1 N  px              0.0       0.0      15.1       0.0       0.0       0.0
 1 N  py              0.0       0.0       0.0       0.0       0.0      34.9
 1 N  dz2             0.0       0.9       0.0       0.0       0.0       0.0
 1 N  dxz             0.0       0.0       0.0       0.0      12.1       0.0
 1 N  dx2y2           0.0       2.6       0.0       0.0       0.0       0.0
 1 N  dxy             0.0       0.0       0.0      12.0       0.0       0.0
 1 N  f0              0.1       0.0       0.0       0.0       0.0       0.0
 1 N  f-1             0.0       0.0       0.0       0.0       0.0       0.1
 1 N  f+2             0.2       0.0       0.0       0.0       0.0       0.0
 1 N  f-3             0.0       0.0       0.0       0.0       0.0       2.0
 2 N  s               0.0      22.1      13.8       0.0       0.0       0.0
 2 N  pz             21.0       0.0       0.0       0.0      43.9       0.0
 2 N  px              0.0      21.6      28.1       0.0       0.0       0.0
 2 N  py              0.0       0.0       0.0      43.9       0.0      24.4
 2 N  dz2             0.0       0.2       0.1       0.0       0.0       0.0
 2 N  dxz             2.1       0.0       0.0       0.0       0.0       0.0
 2 N  dx2y2           0.0       1.0       0.4       0.0       0.0       0.0
 2 N  dxy             0.0       0.0       0.0       0.0       0.0       6.2
 2 N  f0              0.1       0.0       0.0       0.0       0.0       0.0
 2 N  f+2             0.2       0.0       0.0       0.0       0.0       0.0
 2 N  f-3             0.0       0.0       0.0       0.0       0.0       0.9

                     12        13        14        15        16        17   
                  -0.01510   0.11188   0.24100   0.26103   0.27376   0.27431
                   0.00000   0.00000   0.00000   0.00000   0.00000   0.00000
                  --------  --------  --------  --------  --------  --------
 0 N  s               0.0      21.7       2.0       0.0       0.0      15.3
 0 N  pz             26.0       0.0       0.0       0.0      32.6       0.0
 0 N  px              0.0       3.5      24.1       0.0       0.0      31.1
 0 N  py              0.0       0.0       0.0      33.1       0.0       0.0
 0 N  dz2             0.0       0.0       3.3       0.0       0.0       0.2
 0 N  dxz             6.0       0.0       0.0       0.0       0.1       0.0
 0 N  dx2y2           0.0       0.1      10.8       0.0       0.0       0.5
 0 N  dxy             0.0       0.0       0.0       0.1       0.0       0.0
 0 N  f0              0.3       0.0       0.0       0.0       0.0       0.0
 0 N  f+1             0.0       0.0       0.1       0.0       0.0       0.0
 0 N  f+2             0.6       0.0       0.0       0.0       0.0       0.0
 0 N  f+3             0.0       0.0       0.2       0.0       0.0       0.0
 1 N  s               0.0      25.4      15.6       0.0       0.0       0.0
 1 N  pz             32.2       0.0       0.0       0.0      33.4       0.0
 1 N  px              0.0       0.0       0.0       0.0       0.0       5.7
 1 N  py              0.0       0.0       0.0      32.4       0.0       0.0
 1 N  dz2             0.0       5.9       1.0       0.0       0.0       0.0
 1 N  dx2y2           0.0      18.1       2.5       0.0       0.0       0.0
 1 N  f0              0.8       0.0       0.0       0.0       0.4       0.0
 1 N  f+2             1.3       0.0       0.0       0.0       0.7       0.0
 1 N  f-3             0.0       0.0       0.0       0.9       0.0       0.0
 2 N  s               0.0      21.7       2.0       0.0       0.0      15.3
 2 N  pz             26.0       0.0       0.0       0.0      32.6       0.0
 2 N  px              0.0       3.5      24.1       0.0       0.0      31.1
 2 N  py              0.0       0.0       0.0      33.1       0.0       0.0
 2 N  dz2             0.0       0.0       3.3       0.0       0.0       0.2
 2 N  dxz             6.0       0.0       0.0       0.0       0.1       0.0
 2 N  dx2y2           0.0       0.1      10.8       0.0       0.0       0.5
 2 N  dxy             0.0       0.0       0.0       0.1       0.0       0.0
 2 N  f0              0.3       0.0       0.0       0.0       0.0       0.0
 2 N  f+1             0.0       0.0       0.1       0.0       0.0       0.0
 2 N  f+2             0.6       0.0       0.0       0.0       0.0       0.0
 2 N  f+3             0.0       0.0       0.2       0.0       0.0       0.0

                     18        19        20        21        22        23   
                   0.31889   0.33828   0.35528   0.36852   0.47243   0.47947
                   0.00000   0.00000   0.00000   0.00000   0.00000   0.00000
                  --------  --------  --------  --------  --------  --------
 0 N  s              19.9       8.5       0.0       0.0       0.0       0.0
 0 N  pz              0.0       0.0       0.0      48.5       0.0      16.0
 0 N  px             12.7      34.5       0.0       0.0       0.0       0.0
 0 N  py              0.0       0.0      48.5       0.0      15.4       0.0
 0 N  dz2             2.0       0.3       0.0       0.0       0.0       0.0
 0 N  dxz             0.0       0.0       0.0       0.8       0.0       2.4
 0 N  dx2y2           6.7       1.1       0.0       0.0       0.0       0.0
 0 N  dxy             0.0       0.0       0.8       0.0       2.5       0.0
 0 N  f0              0.0       0.0       0.0       0.0       0.0       0.2
 0 N  f+2             0.0       0.0       0.0       0.0       0.0       0.3
 0 N  f-3             0.0       0.0       0.0       0.0       0.5       0.0
 1 N  s               0.0       4.2       0.0       0.0       0.0       0.0
 1 N  pz              0.0       0.0       0.0       0.0       0.0      62.0
 1 N  px             17.2       0.0       0.0       0.0       0.0       0.0
 1 N  py              0.0       0.0       0.0       0.0      63.1       0.0
 1 N  dz2             0.0       1.7       0.0       0.0       0.0       0.0
 1 N  dxz             0.0       0.0       0.0       1.5       0.0       0.0
 1 N  dx2y2           0.0       5.0       0.0       0.0       0.0       0.0
 1 N  dxy             0.0       0.0       1.3       0.0       0.0       0.0
 2 N  s              19.9       8.5       0.0       0.0       0.0       0.0
 2 N  pz              0.0       0.0       0.0      48.5       0.0      16.0
 2 N  px             12.7      34.5       0.0       0.0       0.0       0.0
 2 N  py              0.0       0.0      48.5       0.0      15.4       0.0
 2 N  dz2             2.0       0.3       0.0       0.0       0.0       0.0
 2 N  dxz             0.0       0.0       0.0       0.8       0.0       2.4
 2 N  dx2y2           6.7       1.1       0.0       0.0       0.0       0.0
 2 N  dxy             0.0       0.0       0.8       0.0       2.5       0.0
 2 N  f0              0.0       0.0       0.0       0.0       0.0       0.2
 2 N  f+2             0.0       0.0       0.0       0.0       0.0       0.3
 2 N  f-3             0.0       0.0       0.0       0.0       0.5       0.0

                     24        25        26        27        28        29   
                   0.65446   0.71981   0.75660   0.75669   0.88447   0.98880
                   0.00000   0.00000   0.00000   0.00000   0.00000   0.00000
                  --------  --------  --------  --------  --------  --------
 0 N  s              14.9      10.1       0.0       0.0      10.9       0.0
 0 N  px              0.7       9.4       0.0       0.0       9.4       0.0
 0 N  py              0.0       0.0       0.0       0.0       0.0       2.8
 0 N  dz2             0.6       1.6       0.0      17.0       0.5       0.0
 0 N  dyz             0.0       0.0      22.8       0.0       0.0       0.0
 0 N  dx2y2           1.8       6.5       0.0       5.8       2.2       0.0
 0 N  dxy             0.0       0.0       0.0       0.0       0.0      35.2
 0 N  f+1             0.3       0.9       0.0       0.3       0.1       0.0
 0 N  f-2             0.0       0.0       0.4       0.0       0.0       0.0
 0 N  f+3             0.6       1.5       0.0       0.2       0.1       0.0
 1 N  s              60.8       0.0       0.0       0.0       0.0       0.0
 1 N  px              0.0      39.6       0.0       0.0      45.2       0.0
 1 N  dz2             0.3       0.0       0.0      39.6       0.0       0.0
 1 N  dyz             0.0       0.0      53.6       0.0       0.0       0.0
 1 N  dx2y2           0.8       0.0       0.0      14.0       0.0       0.0
 1 N  dxy             0.0       0.0       0.0       0.0       0.0      23.9
 1 N  f+1             0.0       0.1       0.0       0.0       3.2       0.0
 1 N  f+3             0.0       0.2       0.0       0.0       5.2       0.0
 2 N  s              14.9      10.1       0.0       0.0      10.9       0.0
 2 N  px              0.7       9.4       0.0       0.0       9.4       0.0
 2 N  py              0.0       0.0       0.0       0.0       0.0       2.8
 2 N  dz2             0.6       1.6       0.0      17.0       0.5       0.0
 2 N  dyz             0.0       0.0      22.8       0.0       0.0       0.0
 2 N  dx2y2           1.8       6.5       0.0       5.8       2.2       0.0
 2 N  dxy             0.0       0.0       0.0       0.0       0.0      35.2
 2 N  f+1             0.3       0.9       0.0       0.3       0.1       0.0
 2 N  f-2             0.0       0.0       0.4       0.0       0.0       0.0
 2 N  f+3             0.6       1.5       0.0       0.2       0.1       0.0

                     30        31        32        33        34        35   
                   0.98933   0.98972   1.00878   1.26622   1.34681   1.34719
                   0.00000   0.00000   0.00000   0.00000   0.00000   0.00000
                  --------  --------  --------  --------  --------  --------
 0 N  s               0.0       0.0       0.0       8.9       0.0       0.0
 0 N  pz              0.0       0.0       2.9       0.0       0.0       0.0
 0 N  px              0.0       0.0       0.0       7.4       0.0       0.0
 0 N  dz2             0.0      37.0       0.0       3.1       0.0      21.3
 0 N  dxz             0.0       0.0      35.2       0.0       0.0       0.0
 0 N  dyz            48.8       0.0       0.0       0.0      27.0       0.0
 0 N  dx2y2           0.0      11.7       0.0      12.9       0.0       5.7
 0 N  f+1             0.0       0.0       0.0       0.3       0.0       0.7
 0 N  f-2             0.0       0.0       0.0       0.0       1.3       0.0
 0 N  f+3             0.0       0.0       0.0       0.3       0.0       0.6
 1 N  s               0.0       0.0       0.0      15.4       0.0       0.1
 1 N  dz2             0.0       0.0       0.0       6.8       0.0      30.7
 1 N  dxz             0.0       0.0      23.9       0.0       0.0       0.0
 1 N  dyz             0.0       0.0       0.0       0.0      43.3       0.0
 1 N  dx2y2           0.0       0.0       0.0      11.8       0.0      12.4
 1 N  f+1             0.0       1.4       0.0       0.0       0.0       0.0
 1 N  f-2             2.5       0.0       0.0       0.0       0.0       0.0
 1 N  f+3             0.0       1.1       0.0       0.0       0.0       0.0
 2 N  s               0.0       0.0       0.0       8.9       0.0       0.0
 2 N  pz              0.0       0.0       2.9       0.0       0.0       0.0
 2 N  px              0.0       0.0       0.0       7.4       0.0       0.0
 2 N  dz2             0.0      37.0       0.0       3.1       0.0      21.3
 2 N  dxz             0.0       0.0      35.2       0.0       0.0       0.0
 2 N  dyz            48.8       0.0       0.0       0.0      27.0       0.0
 2 N  dx2y2           0.0      11.7       0.0      12.9       0.0       5.7
 2 N  f+1             0.0       0.0       0.0       0.3       0.0       0.7
 2 N  f-2             0.0       0.0       0.0       0.0       1.3       0.0
 2 N  f+3             0.0       0.0       0.0       0.3       0.0       0.6

                     36        37        38        39        40        41   
                   1.47545   1.49485   1.61161   1.68836   1.83014   1.85100
                   0.00000   0.00000   0.00000   0.00000   0.00000   0.00000
                  --------  --------  --------  --------  --------  --------
 0 N  s               0.0       0.0       0.4      18.7       0.0       0.0
 0 N  pz              0.0       3.2       0.0       0.0       0.0      25.3
 0 N  px              0.0       0.0      10.1       9.4       0.0       0.0
 0 N  py              3.2       0.0       0.0       0.0      25.8       0.0
 0 N  dz2             0.0       0.0       6.2       2.2       0.0       0.0
 0 N  dxz             0.0      36.5       0.0       0.0       0.0       7.8
 0 N  dx2y2           0.0       0.0      17.3       6.1       0.0       0.0
 0 N  dxy            36.3       0.0       0.0       0.0       7.6       0.0
 0 N  f0              0.0       0.6       0.0       0.0       0.0       0.9
 0 N  f+1             0.0       0.0       1.1       2.2       0.0       0.0
 0 N  f-1             0.1       0.0       0.0       0.0       0.1       0.0
 0 N  f+2             0.0       1.0       0.0       0.0       0.0       1.5
 0 N  f+3             0.0       0.0       1.9       3.7       0.0       0.0
 0 N  f-3             1.5       0.0       0.0       0.0       2.1       0.0
 1 N  s               0.0       0.0       0.0      12.0       0.0       0.0
 1 N  pz              0.0      12.3       0.0       0.0       0.0       0.0
 1 N  px              0.0       0.0      19.3       0.0       0.0       0.0
 1 N  py             12.4       0.0       0.0       0.0       0.0       0.0
 1 N  dz2             0.0       0.0       0.0       1.0       0.0       0.0
 1 N  dxz             0.0       0.0       0.0       0.0       0.0      29.3
 1 N  dx2y2           0.0       0.0       0.0       2.7       0.0       0.0
 1 N  dxy             0.0       0.0       0.0       0.0      28.8       0.0
 1 N  f0              0.0       2.0       0.0       0.0       0.0       0.0
 1 N  f+1             0.0       0.0       2.6       0.0       0.0       0.0
 1 N  f-1             0.3       0.0       0.0       0.0       0.0       0.0
 1 N  f+2             0.0       3.2       0.0       0.0       0.0       0.0
 1 N  f+3             0.0       0.0       4.1       0.0       0.0       0.0
 1 N  f-3             4.9       0.0       0.0       0.0       0.0       0.0
 2 N  s               0.0       0.0       0.4      18.7       0.0       0.0
 2 N  pz              0.0       3.2       0.0       0.0       0.0      25.3
 2 N  px              0.0       0.0      10.1       9.4       0.0       0.0
 2 N  py              3.2       0.0       0.0       0.0      25.8       0.0
 2 N  dz2             0.0       0.0       6.2       2.2       0.0       0.0
 2 N  dxz             0.0      36.5       0.0       0.0       0.0       7.7
 2 N  dx2y2           0.0       0.0      17.3       6.1       0.0       0.0
 2 N  dxy            36.3       0.0       0.0       0.0       7.6       0.0
 2 N  f0              0.0       0.6       0.0       0.0       0.0       0.9
 2 N  f+1             0.0       0.0       1.1       2.2       0.0       0.0
 2 N  f-1             0.1       0.0       0.0       0.0       0.1       0.0
 2 N  f+2             0.0       1.0       0.0       0.0       0.0       1.5
 2 N  f+3             0.0       0.0       1.9       3.7       0.0       0.0
 2 N  f-3             1.5       0.0       0.0       0.0       2.1       0.0

                     42        43        44        45        46        47   
                   1.88457   1.90074   1.90294   2.07715   2.21719   2.23269
                   0.00000   0.00000   0.00000   0.00000   0.00000   0.00000
                  --------  --------  --------  --------  --------  --------
 0 N  s               0.0       0.0      31.0      19.8       0.0       0.0
 0 N  pz              0.0      26.5       0.0       0.0       0.0      20.7
 0 N  px              0.0       0.0      16.0       9.4       0.0       0.0
 0 N  py             28.2       0.0       0.0       0.0      19.0       0.0
 0 N  dz2             0.0       0.0       0.2       1.1       0.0       0.0
 0 N  dxz             0.0       0.1       0.0       0.0       0.0       0.3
 0 N  dx2y2           0.0       0.0       0.4       2.9       0.0       0.0
 0 N  dxy             0.2       0.0       0.0       0.0       0.3       0.0
 0 N  f0              0.0       0.0       0.0       0.0       0.0       1.0
 0 N  f+1             0.0       0.0       0.0       1.1       0.0       0.0
 0 N  f-1             0.0       0.0       0.0       0.0       0.2       0.0
 0 N  f+2             0.0       0.0       0.0       0.0       0.0       1.8
 0 N  f+3             0.0       0.0       0.0       1.9       0.0       0.0
 0 N  f-3             0.1       0.0       0.0       0.0       2.7       0.0
 1 N  s               0.0       0.0       0.0      20.2       0.0       0.0
 1 N  pz              0.0      45.7       0.0       0.0       0.0      45.5
 1 N  px              0.0       0.0       3.2       0.0       0.0       0.0
 1 N  py             42.4       0.0       0.0       0.0      49.0       0.0
 1 N  dz2             0.0       0.0       0.0       2.0       0.0       0.0
 1 N  dx2y2           0.0       0.0       0.0       5.4       0.0       0.0
 1 N  f0              0.0       0.3       0.0       0.0       0.0       2.5
 1 N  f+1             0.0       0.0       0.5       0.0       0.0       0.0
 1 N  f-1             0.0       0.0       0.0       0.0       0.4       0.0
 1 N  f+2             0.0       0.6       0.0       0.0       0.0       4.2
 1 N  f+3             0.0       0.0       0.8       0.0       0.0       0.0
 1 N  f-3             0.7       0.0       0.0       0.0       6.4       0.0
 2 N  s               0.0       0.0      31.0      19.8       0.0       0.0
 2 N  pz              0.0      26.5       0.0       0.0       0.0      20.7
 2 N  px              0.0       0.0      16.0       9.4       0.0       0.0
 2 N  py             28.2       0.0       0.0       0.0      19.0       0.0
 2 N  dz2             0.0       0.0       0.2       1.1       0.0       0.0
 2 N  dxz             0.0       0.1       0.0       0.0       0.0       0.3
 2 N  dx2y2           0.0       0.0       0.4       2.9       0.0       0.0
 2 N  dxy             0.2       0.0       0.0       0.0       0.3       0.0
 2 N  f0              0.0       0.0       0.0       0.0       0.0       1.0
 2 N  f+1             0.0       0.0       0.0       1.1       0.0       0.0
 2 N  f-1             0.0       0.0       0.0       0.0       0.2       0.0
 2 N  f+2             0.0       0.0       0.0       0.0       0.0       1.8
 2 N  f+3             0.0       0.0       0.0       1.9       0.0       0.0
 2 N  f-3             0.1       0.0       0.0       0.0       2.7       0.0

                     48        49        50        51        52        53   
                   2.31193   2.33472   2.56574   2.57682   3.29195   3.29204
                   0.00000   0.00000   0.00000   0.00000   0.00000   0.00000
                  --------  --------  --------  --------  --------  --------
 0 N  s               0.0       0.0       4.2       5.7       0.0       0.0
 0 N  pz              0.0      23.2       0.0       0.0       0.0       0.0
 0 N  px              0.0       0.0       4.9      20.8       0.0       0.0
 0 N  py             22.6       0.0       0.0       0.0       0.0       0.0
 0 N  dz2             0.0       0.0       1.0       0.0       0.0       0.7
 0 N  dxz             0.0       3.6       0.0       0.0       0.0       0.0
 0 N  dyz             0.0       0.0       0.0       0.0       1.0       0.0
 0 N  dx2y2           0.0       0.0       3.0       0.1       0.0       0.3
 0 N  dxy             3.7       0.0       0.0       0.0       0.0       0.0
 0 N  f0              0.0       5.1       0.0       0.0       0.0       0.0
 0 N  f+1             0.0       0.0       2.5       2.9       0.0      16.5
 0 N  f-1             0.8       0.0       0.0       0.0       0.0       0.0
 0 N  f+2             0.0       8.9       0.0       0.0       0.0       0.0
 0 N  f-2             0.0       0.0       0.0       0.0      26.7       0.0
 0 N  f+3             0.0       0.0       4.7       5.2       0.0      10.2
 0 N  f-3            13.5       0.0       0.0       0.0       0.0       0.0
 1 N  s               0.0       0.0       0.0      17.6       0.0       0.0
 1 N  px              0.0       0.0      41.0       0.0       0.0       0.0
 1 N  dz2             0.0       0.0       0.0       3.2       0.0       0.0
 1 N  dxz             0.0      18.2       0.0       0.0       0.0       0.0
 1 N  dx2y2           0.0       0.0       0.0       9.8       0.0       0.0
 1 N  dxy            18.8       0.0       0.0       0.0       0.0       0.0
 1 N  f+1             0.0       0.0       6.5       0.0       0.0      28.4
 1 N  f-2             0.0       0.0       0.0       0.0      44.5       0.0
 1 N  f+3             0.0       0.0      11.8       0.0       0.0      16.1
 2 N  s               0.0       0.0       4.2       5.7       0.0       0.0
 2 N  pz              0.0      23.2       0.0       0.0       0.0       0.0
 2 N  px              0.0       0.0       4.9      20.7       0.0       0.0
 2 N  py             22.6       0.0       0.0       0.0       0.0       0.0
 2 N  dz2             0.0       0.0       1.0       0.0       0.0       0.7
 2 N  dxz             0.0       3.6       0.0       0.0       0.0       0.0
 2 N  dyz             0.0       0.0       0.0       0.0       1.0       0.0
 2 N  dx2y2           0.0       0.0       3.0       0.1       0.0       0.3
 2 N  dxy             3.7       0.0       0.0       0.0       0.0       0.0
 2 N  f0              0.0       5.1       0.0       0.0       0.0       0.0
 2 N  f+1             0.0       0.0       2.5       2.9       0.0      16.5
 2 N  f-1             0.8       0.0       0.0       0.0       0.0       0.0
 2 N  f+2             0.0       8.9       0.0       0.0       0.0       0.0
 2 N  f-2             0.0       0.0       0.0       0.0      26.7       0.0
 2 N  f+3             0.0       0.0       4.7       5.2       0.0      10.2
 2 N  f-3            13.5       0.0       0.0       0.0       0.0       0.0

                     54        55        56        57        58        59   
                   3.38250   3.53561   3.53563   3.56056   3.70827   3.72853
                   0.00000   0.00000   0.00000   0.00000   0.00000   0.00000
                  --------  --------  --------  --------  --------  --------
 0 N  s               2.6       0.0       0.0       9.0       0.0       0.0
 0 N  pz              0.0       0.0       0.0       0.0       0.0       0.7
 0 N  px              2.7       0.0       0.0       8.0       0.0       0.0
 0 N  py              0.0       0.0       0.0       0.0       0.7       0.0
 0 N  dz2             3.1       0.0       0.0       2.3       0.0       0.0
 0 N  dxz             0.0       0.0       0.0       0.0       0.0      14.5
 0 N  dx2y2          10.6       0.0       0.0       7.0       0.0       0.0
 0 N  dxy             0.0       0.0       0.0       0.0      14.6       0.0
 0 N  f0              0.0       0.0      13.4       0.0       0.0       5.8
 0 N  f+1             0.1       0.0       0.0       4.0       0.0       0.0
 0 N  f-1             0.0      20.2       0.0       0.0       1.0       0.0
 0 N  f+2             0.0       0.0       8.4       0.0       0.0       9.7
 0 N  f+3             0.2       0.0       0.0       5.9       0.0       0.0
 0 N  f-3             0.0       1.5       0.0       0.0      14.6       0.0
 1 N  s              36.6       0.0       0.0       0.0       0.0       0.0
 1 N  pz              0.0       0.0       0.0       0.0       0.0       2.0
 1 N  px              0.0       0.0       0.0      24.5       0.0       0.0
 1 N  py              0.0       0.0       0.0       0.0       2.0       0.0
 1 N  dz2             6.1       0.0       0.0       0.0       0.0       0.0
 1 N  dx2y2          18.5       0.0       0.0       0.0       0.0       0.0
 1 N  f0              0.0       0.0      34.8       0.0       0.0      14.6
 1 N  f+1             0.0       0.0       0.0       0.8       0.0       0.0
 1 N  f-1             0.0      52.7       0.0       0.0       2.8       0.0
 1 N  f+2             0.0       0.0      21.7       0.0       0.0      21.9
 1 N  f+3             0.0       0.0       0.0       2.2       0.0       0.0
 1 N  f-3             0.0       3.8       0.0       0.0      33.5       0.0
 2 N  s               2.6       0.0       0.0       9.0       0.0       0.0
 2 N  pz              0.0       0.0       0.0       0.0       0.0       0.7
 2 N  px              2.7       0.0       0.0       8.0       0.0       0.0
 2 N  py              0.0       0.0       0.0       0.0       0.7       0.0
 2 N  dz2             3.1       0.0       0.0       2.3       0.0       0.0
 2 N  dxz             0.0       0.0       0.0       0.0       0.0      14.5
 2 N  dx2y2          10.6       0.0       0.0       7.0       0.0       0.0
 2 N  dxy             0.0       0.0       0.0       0.0      14.6       0.0
 2 N  f0              0.0       0.0      13.4       0.0       0.0       5.8
 2 N  f+1             0.1       0.0       0.0       4.0       0.0       0.0
 2 N  f-1             0.0      20.2       0.0       0.0       1.0       0.0
 2 N  f+2             0.0       0.0       8.4       0.0       0.0       9.7
 2 N  f+3             0.2       0.0       0.0       5.9       0.0       0.0
 2 N  f-3             0.0       1.5       0.0       0.0      14.6       0.0

                     60        61        62        63        64        65   
                   3.81219   3.81224   3.99012   3.99023   4.06727   4.06730
                   0.00000   0.00000   0.00000   0.00000   0.00000   0.00000
                  --------  --------  --------  --------  --------  --------
 0 N  dz2             0.0       0.0       6.4       0.0       0.0       0.0
 0 N  dyz             0.0       0.0       0.0       8.5       0.0       0.0
 0 N  dx2y2           0.0       0.0       2.1       0.0       0.0       0.0
 0 N  f0              0.0      31.3       0.0       0.0       0.0      17.8
 0 N  f+1             0.0       0.0      22.9       0.0       0.0       0.0
 0 N  f-1            46.9       0.0       0.0       0.0      26.5       0.0
 0 N  f+2             0.0      18.7       0.0       0.0       0.0      10.5
 0 N  f-2             0.0       0.0       0.0      37.2       0.0       0.0
[...]
Perturbation type                       ... REAL

----------------------------
POPLE LINEAR EQUATION SOLVER
----------------------------

  ITERATION   0:   ||err||_max =   7.5157e-01 (   0.3 sec   0/  9 done)
  ITERATION   1:   ||err||_max =   2.2482e-01 (   0.3 sec   0/  9 done)
  ITERATION   2:   ||err||_max =   9.4735e-02 (   0.3 sec   0/  9 done)
  ITERATION   3:   ||err||_max =   4.4735e-02 (   0.3 sec   1/  9 done)
  ITERATION   4:   ||err||_max =   1.2604e-02 (   0.3 sec   3/  9 done)
  ITERATION   5:   ||err||_max =   5.8098e-03 (   0.2 sec   3/  9 done)
  ITERATION   6:   ||err||_max =   2.1944e-03 (   0.2 sec   4/  9 done)
  ITERATION   7:   ||err||_max =   6.0063e-04 (   0.2 sec   7/  9 done)
  ITERATION   8:   ||err||_max =   8.6802e-05 (   0.1 sec   9/  9 done)

CP-SCF equations solved in   2.2 sec
Response densities calculated in   0.0 sec

Maximum memory used throughout the entire SCFRESP-calculation: 15.9 MB


           ************************************************************
           *        Program running with 4 parallel MPI-processes     *
           *              working on a common directory               *
           ************************************************************

------------------------------------------------------------------------------
                              ORCA PROPERTY CALCULATIONS
------------------------------------------------------------------------------

GBWName                                 ... orca.gbw
Number of atoms                         ...      3
Number of basis functions               ...     93
Max core memory                         ...   4096 MB

Electric properties:
Dipole moment                           ... YES
Quadrupole moment                       ...  NO
Static polarizability (Dipole/Dipole)   ...  NO
Static polarizability (Dipole/Quad.)    ...  NO
Static polarizability (Quad./Quad.)     ...  NO
Static polarizability (Velocity)        ...  NO
Static hyperpolarizability              ...  NO

Atomic electric properties:
Dipole moment                           ...  NO
Quadrupole moment                       ...  NO
Static polarizability                   ...  NO

Choice of electric origin               ... Center of mass
Position of electric origin             ...     2.235729     0.000104     0.000000

General magnetic properties:
Magnetizability                         ...  NO

EPR properties:
g-Tensor (aka g-matrix)                 ...  NO
Zero-Field splitting spin-orbit         ...  NO
Zero-field splitting spin-spin          ...  NO
Hyperfine couplings                     ...  NO (   0 nuclei)
Quadrupole couplings                    ...  NO (   0 nuclei)
Contact density                         ...  NO (   0 nuclei)

NMR properties:
Chemical shifts                         ...  NO (   0 nuclei)
Spin-rotation constants                 ...  NO (   0 nuclei)
Spin-spin couplings                     ...  NO (   0 nuclei,    0 pairs)

Choice of magnetic origin               ... GIAO
Position of magnetic origin             ...     0.000000     0.000000     0.000000

Properties with geometric perturbations:
SCF Hessian                             ... YES
IR spectrum                             ... YES
VCD spectrum                            ...  NO
X-ray spectroscopy properties:
SCF XES/XAS/RIXS spectra                ...  NO

SCF SOC stabilization energy            ...  NO
Diagonal Born-Oppenheimer correction    ...  NO

-------------
DIPOLE MOMENT
-------------

Method             : SCF
Type of density    : Electron Density
Multiplicity       :   2
Irrep              :   0
Energy             :  -164.1289747102470358 Eh
Basis              : AO
                                X                 Y                 Z
Electronic contribution:      0.000011190      -0.000038444      -0.000000024
Nuclear contribution   :      0.000000000      -0.000000000      -0.000000000
                        -----------------------------------------
Total Dipole Moment    :      0.000011190      -0.000038444      -0.000000024
                        -----------------------------------------
Magnitude (a.u.)       :      0.000040039
Magnitude (Debye)      :      0.000101772



--------------------
Rotational spectrum 
--------------------
 
Rotational constants in cm-1:     492527328.679761             0.437189             0.437189 
Rotational constants in MHz : 14765597849707.947266         13106.590731         13106.590720 

Dipole components along the rotational axes: 
x,y,z [a.u.] :     0.000011    -0.000038    -0.000000 
x,y,z [Debye]:     0.000028    -0.000098    -0.000000 

 

Dipole moment calculation done in   0.0 sec 

-----------
SCF HESSIAN
-----------

Occupied/Occupied contributions to the Hessian:
   => Occupied/Occupied contributions              ... done (  0.0 sec)
Perturbed density contributions to the Hessian:
   => Perturbed density contributions              ... done (  0.0 sec)
Explicit contributions to the Hessian:
   => Nuclear repulsion Hessian                    ... done (  0.0 sec)
   => HCore and overlap Hessian                    ... done (  0.1 sec)
   => RI-J Hessian                                 ... done (  0.3 sec)
   => COSX Hessian                                 ... done ( 15.4 sec)
   => XC-Hessian                                   ... done (  1.1 sec)
   => Explicit contributions done
Dipole derivatives                                 ... done (  0.0 sec)
Mass weighting the Hessian           ... done
Calculating normal modes             ... done
Scaling frequencies                  ... done

-----------------------
VIBRATIONAL FREQUENCIES
-----------------------

Scaling factor for frequencies =  1.000000000  (already applied!)

     0:       0.00 cm**-1
     1:       0.00 cm**-1
     2:       0.00 cm**-1
     3:       0.00 cm**-1
     4:       0.00 cm**-1
     5:       0.00 cm**-1
     6:     511.87 cm**-1
     7:    1377.23 cm**-1
     8:    1709.08 cm**-1


------------
NORMAL MODES
------------

These modes are the Cartesian displacements weighted by the diagonal matrix
M(i,i)=1/sqrt(m[i]) where m[i] is the mass of the displaced atom
Thus, these vectors are normalized but *not* orthogonal

                  0          1          2          3          4          5    
      0       0.000000   0.000000   0.000000   0.000000   0.000000   0.000000
      1       0.000000   0.000000   0.000000   0.000000   0.000000   0.000000
      2       0.000000   0.000000   0.000000   0.000000   0.000000   0.000000
      3       0.000000   0.000000   0.000000   0.000000   0.000000   0.000000
      4       0.000000   0.000000   0.000000   0.000000   0.000000   0.000000
      5       0.000000   0.000000   0.000000   0.000000   0.000000   0.000000
      6       0.000000   0.000000   0.000000   0.000000   0.000000   0.000000
      7       0.000000   0.000000   0.000000   0.000000   0.000000   0.000000
      8       0.000000   0.000000   0.000000   0.000000   0.000000   0.000000
                  6          7          8    
      0      -0.000019  -0.707104   0.408254
      1      -0.408248  -0.000022   0.000008
      2       0.000202  -0.000000   0.000000
      3      -0.000057  -0.000006  -0.816497
      4       0.816496  -0.000055  -0.000057
      5      -0.000403   0.000000   0.000000
      6       0.000077   0.707110   0.408243
      7      -0.408248   0.000077   0.000050
      8       0.000202  -0.000000  -0.000000


-----------
IR SPECTRUM
-----------

 Mode   freq       eps      Int      T**2         TX        TY        TZ
       cm**-1   L/(mol*cm) km/mol    a.u.
----------------------------------------------------------------------------
  6:    511.87   0.002274   11.49  0.001386  (-0.000003  0.037235  0.000020)
  7:   1377.23   0.000000    0.00  0.000000  (-0.000001  0.000002 -0.000000)
  8:   1709.08   0.045456  229.72  0.008300  (-0.091104 -0.000006 -0.000000)

* The epsilon (eps) is given for a Dirac delta lineshape.
** The dipole moment derivative (T) already includes vibrational overlap.

The first frequency considered to be a vibration is 6
The total number of vibrations considered is 3


--------------------------
THERMOCHEMISTRY AT 298.15K
--------------------------

Temperature         ...   298.15 K
Pressure            ...     1.00 atm
Total Mass          ...    42.02 AMU
Quasi RRHO          ...     True
Cut-Off Frequency   ...     1.00 cm^-1

Throughout the following assumptions are being made:
  (1) The electronic state is orbitally nondegenerate
      but the spin degeneracy is treated
  (2) There are no thermally accessible electronically excited states
  (3) Hindered rotations indicated by low frequency modes are not
      treated as such but are treated as vibrations and this may
      cause some error
  (4) All equations used are the standard statistical mechanics
      equations for an ideal gas
  (5) All vibrations are strictly harmonic

freq.     511.87  E(vib)   ...       0.14 
freq.    1377.23  E(vib)   ...       0.01 
freq.    1709.08  E(vib)   ...       0.00 

------------
INNER ENERGY
------------

The inner energy is: U= E(el) + E(ZPE) + E(vib) + E(rot) + E(trans)
    E(el)   - is the total energy from the electronic structure calculation
              = E(kin-el) + E(nuc-el) + E(el-el) + E(nuc-nuc)
    E(ZPE)  - the the zero temperature vibrational energy from the frequency calculation
    E(vib)  - the the finite temperature correction to E(ZPE) due to population
              of excited vibrational states
    E(rot)  - is the rotational thermal energy
    E(trans)- is the translational thermal energy

Summary of contributions to the inner energy U:
Electronic energy                ...   -164.12897471 Eh
Zero point energy                ...      0.00819727 Eh       5.14 kcal/mol
Thermal vibrational correction   ...      0.00022569 Eh       0.14 kcal/mol
Thermal rotational correction    ...      0.00141627 Eh       0.89 kcal/mol
Thermal translational correction ...      0.00141627 Eh       0.89 kcal/mol
-----------------------------------------------------------------------
Total thermal energy                   -164.11771921 Eh


Summary of corrections to the electronic energy:
(perhaps to be used in another calculation)
Total thermal correction                  0.00305823 Eh       1.92 kcal/mol
Non-thermal (ZPE) correction              0.00819727 Eh       5.14 kcal/mol
-----------------------------------------------------------------------
Total correction                          0.01125550 Eh       7.06 kcal/mol


--------
ENTHALPY
--------

The enthalpy is H = U + kB*T
                kB is Boltzmann's constant
Total thermal energy              ...   -164.11771921 Eh 
Thermal Enthalpy correction       ...      0.00094421 Eh       0.59 kcal/mol
-----------------------------------------------------------------------
Total Enthalpy                    ...   -164.11677500 Eh


Note: Rotational entropy computed according to Herzberg 
Infrared and Raman Spectra, Chapter V,1, Van Nostrand Reinhold, 1945 
Point Group:  D(inf)h, Symmetry Number:   1  
Rotational constants in cm-1: 492527757.193536     0.437189     0.437189 

Vibrational entropy computed according to the QRRHO of S. Grimme
Chem.Eur.J. 2012 18 9955 using a reference frequency of 100.0 cm-1


-------
ENTROPY
-------

The entropy contributions are T*S = T*(S(el)+S(vib)+S(rot)+S(trans))
     S(el)   - electronic entropy
     S(vib)  - vibrational entropy
     S(rot)  - rotational entropy
     S(trans)- translational entropy
The entropies will be listed as multiplied by the temperature to get
units of energy

Electronic entropy                ...      0.00065446 Eh      0.41 kcal/mol
Vibrational entropy               ...      0.00031102 Eh      0.20 kcal/mol
Rotational entropy                ...      0.00084310 Eh      0.53 kcal/mol
Translational entropy             ...      0.01764333 Eh     11.07 kcal/mol
-----------------------------------------------------------------------
Final entropy term                ...      0.01945190 Eh     12.21 kcal/mol

In case the symmetry of your molecule has not been determined correctly
or in case you have a reason to use a different symmetry number we print 
out the resulting rotational entropy values for sn=1,12:

 non-linear molecules -----------------------------------
|  sn= 1 | S(rot)=       0.00084310 Eh      0.53 kcal/mol|
|  sn= 2 | S(rot)=       0.00018864 Eh      0.12 kcal/mol|
|  sn= 3 | S(rot)=      -0.00019419 Eh     -0.12 kcal/mol|
|  sn= 4 | S(rot)=      -0.00046582 Eh     -0.29 kcal/mol|
|  sn= 5 | S(rot)=      -0.00067651 Eh     -0.42 kcal/mol|
|  sn= 6 | S(rot)=      -0.00084865 Eh     -0.53 kcal/mol|
|  sn= 7 | S(rot)=      -0.00099420 Eh     -0.62 kcal/mol|
|  sn= 8 | S(rot)=      -0.00112027 Eh     -0.70 kcal/mol|
|  sn= 9 | S(rot)=      -0.00123148 Eh     -0.77 kcal/mol|
|  sn=10 | S(rot)=      -0.00133096 Eh     -0.84 kcal/mol|
|  sn=11 | S(rot)=      -0.00142095 Eh     -0.89 kcal/mol|
|  sn=12 | S(rot)=      -0.00150311 Eh     -0.94 kcal/mol|
 linear molecules ---------------------------------------
|  Dinfh | S(rot)=       0.00610701 Eh      3.83 kcal/mol|
|  Cinfv | S(rot)=       0.00676147 Eh      4.24 kcal/mol|
 --------------------------------------------------------


-------------------
GIBBS FREE ENERGY
-------------------

The Gibbs free energy is G = H - T*S

Total enthalpy                    ...   -164.11677500 Eh 
Total entropy correction          ...     -0.01945190 Eh    -12.21 kcal/mol
-----------------------------------------------------------------------
Final Gibbs free energy         ...   -164.13622690 Eh

For completeness - the Gibbs free energy minus the electronic energy
G-E(el)                           ...     -0.00725219 Eh     -4.55 kcal/mol


Maximum memory used throughout the entire PROP-calculation: 16.5 MB

--------------------------------
SUGGESTED CITATIONS FOR THIS RUN
--------------------------------

Below you find a list of papers that are relevant to this ORCA run
We neither can nor want to force you to cite these papers, but we appreciate if you do
You receive ORCA, which is the product of decades of hard work by many enthusiastic individuals, for free
The only thing we kindly ask in return is that you cite our papers,
We deeply appreciate it, if you show your appreciation for ORCA by not just citing the generic ORCA reference.

Please note that relegating all ORCA citations to the supporting information does *not* help us.
SI sections are not indexed - citations you put there will not count into any citation statistics
But we need these citations in order to attract the funding resources that allow us to do what we are doing

Therefore, if you are a happy ORCA user, please consider citing a few of the papers listed below in the main body of your paper

In addition to the list printed below, the program has created the file orca.bibtex that contains the list in bibtex format
You can import this file easily into all common literature databanks and citation aid programs

It goes without saying that in many instances, there are alternative algorithms to achieve similar
results as the ones you have gotten from ORCA. It is, of course, also the case that in some instances
ORCA just re-implements algorithms worked out by others. We are fully aware of that and we are also
fully appreciative of our colleagues work. Hence this citation list should not be read as indicating
that the listed papers, which are focused on our own work, are the only ones worth citing. It simply
meant to make it easier for users to cite ORCA specific papers. It is not a substitute for doing your
own literature research and citing the relevant literature in a scientifically appropriate manner.

List of essential papers. We consider these as the minimum necessary citations

  1. Neese, F.
     Software update: the ORCA program system, version 6.0
     WIRES Comput. Molec. Sci. 2025 15(1), e70019
     doi.org/10.1002/wcms.70019

List of papers to cite with high priority. The work reported in these papers was absolutely
necessary for this run to complete.
Our perspective: the developers of density functionals and basis sets usually get cited in chemistry papers
Good! But without the algorithms to do something with them, the functionals or basis sets would not do anything.
Hence, in our opinion, the algorithm design and method developments papers are equally worthy of getting cited

  1. Neese, F.
     An improvement of the resolution of the identity approximation for the formation of the Coulomb matrix
     J. Comp. Chem. 2003 24(14), 1740-1747
     doi.org/10.1002/jcc.10318
  2. Neese, F.; Wennmohs, F.; Hansen, A.; Becker, U.
     Efficient, approximate and parallel Hartree-Fock and hybrid DFT calculations. A 'chain-of-spheres' algorithm for the Hartree-Fock exchange
     Chem. Phys. 2009 356(1-3), 98-109
     doi.org/10.1016/j.chemphys.2008.10.036
  3. Bykov, D.; Petrenko, T.; Izsak, R.; Kossmann, S.; Becker, U.; Valeev, E.; Neese, F.
     Efficient implementation of the analytic second derivatives of Hartree-Fock and hybrid DFT energies: a detailed analysis of different approximations
     Molec. Phys. 2015 113 , 1961-1977
     doi.org/10.1080/00268976.2015.1025114
  4. Helmich-Paris, B.; de Souza, B.; Neese, F.; Izsák, R.
     An improved chain of spheres for exchange algorithm
     J. Chem. Phys. 2021 155(10), 104109
     doi.org/10.1063/5.0058766
  5. Neese, F.
     The SHARK Integral Generation and Digestion System
     J. Comp. Chem. 2022 44(3), 381
     doi.org/10.1002/jcc.26942

List of suggested additional citations. These are papers that are important in the 'surrounding' of 
of this run, or papers that preceded the highly important papers. If you like your results we are grateful for a citation.

  1. Izsak, R.; Neese, F.
     An overlap fitted chain of spheres exchange method
     J. Chem. Phys. 2011 135 , 144105
     doi.org/10.1063/1.3646921
  2. Izsak, R.; Hansen, A.; Neese, F.
     The resolution of identity and chain of spheres approximations for the LPNO-CCSD singles Fock term
     Molec. Phys. 2012 110 , 2413-2417
     doi.org/10.1080/00268976.2012.687466
  3. Neese, F.
     The ORCA program system
     WIRES Comput. Molec. Sci. 2012 2(1), 73-78
     doi.org/10.1002/wcms.81
  4. Izsak, R.; Neese, F.; Klopper, W.
     Robust fitting techniques in the chain of spheres approximation to the Fock exchange: The role of the complementary space
     J. Chem. Phys. 2013 139 , 
     doi.org/10.1063/1.4819264
  5. Neese, F.
     Software update: the ORCA program system, version 4.0
     WIRES Comput. Molec. Sci. 2018 8(1), 1-6
     doi.org/10.1002/wcms.1327
  6. Neese, F.; Wennmohs, F.; Becker, U.; Riplinger, C.
     The ORCA quantum chemistry program package
     J. Chem. Phys. 2020 152(22), 224108
     doi.org/10.1063/5.0004608
  7. Neese, F.
     Software update: The ORCA program system—Version 5.0
     WIRES Comput. Molec. Sci. 2022 12(1), e1606
     doi.org/10.1002/wcms.1606

List of optional additional citations

  1. Neese, F.
     Approximate second-order SCF convergence for spin unrestricted wavefunctions
     Chem. Phys. Lett. 2000 325(1-3), 93-98
     doi.org/10.1016/s0009-2614(00)00662-x

Timings for individual modules:

Sum of individual times          ...       45.882 sec (=   0.765 min)
Startup calculation              ...        2.129 sec (=   0.035 min)   4.6 %
SCF iterations                   ...       12.864 sec (=   0.214 min)  28.0 %
Property integrals               ...        4.607 sec (=   0.077 min)  10.0 %
SCF Response                     ...        2.596 sec (=   0.043 min)   5.7 %
Property calculations            ...       17.213 sec (=   0.287 min)  37.5 %
SCF Gradient evaluation          ...        6.460 sec (=   0.108 min)  14.1 %
Geometry relaxation              ...        0.013 sec (=   0.000 min)   0.0 %
                             ****ORCA TERMINATED NORMALLY****
TOTAL RUN TIME: 0 days 0 hours 0 minutes 47 seconds 177 msec
