
                                 *****************
                                 * O   R   C   A *
                                 *****************

                                            #,                                       
                                            ###                                      
                                            ####                                     
                                            #####                                    
                                            ######                                   
                                           ########,                                 
                                     ,,################,,,,,                         
                               ,,#################################,,                 
                          ,,##########################################,,             
                       ,#########################################, ''#####,          
                    ,#############################################,,   '####,        
                  ,##################################################,,,,####,       
                ,###########''''           ''''###############################       
              ,#####''   ,,,,##########,,,,          '''####'''          '####       
            ,##' ,,,,###########################,,,                        '##       
           ' ,,###''''                  '''############,,,                           
         ,,##''                                '''############,,,,        ,,,,,,###''
      ,#''                                            '''#######################'''  
     '                                                          ''''####''''         
             ,#######,   #######,   ,#######,      ##                                
            ,#'     '#,  ##    ##  ,#'     '#,    #''#        ,####,    ,#,          
            ##       ##  ##   ,#'  ##            #'  '#       #'       ,# #          
            ##       ##  #######   ##           ,######,      #####,      #          
            '#,     ,#'  ##    ##  '#,     ,#' ,#      #,     #,   #      #          
             '#######'   ##     ##  '#######'  #'      '#     '####' #    #          



                #########################################################
                #                        -***-                          #
                #          Department of theory and spectroscopy        #
                #                                                       #
                #                      Frank Neese                      #
                #                                                       #
                #     Directorship, Architecture, Infrastructure        #
                #                    SHARK, DRIVERS                     #
                #        Core code/Algorithms in most modules           #
                #                                                       #
                #        Max Planck Institute fuer Kohlenforschung      #
                #                Kaiser Wilhelm Platz 1                 #
                #                 D-45470 Muelheim/Ruhr                 #
                #                      Germany                          #
                #                                                       #
                #                  All rights reserved                  #
                #                        -***-                          #
                #########################################################


                         Program Version 6.1.1  -  RELEASE   -
                                (GIT: $487d211c$)
                          ($2025-11-21 10:33:24 +0100$)
                                                                         
                                  - NO-DMRG VERSION -                    
                                                                         


 With contributions from (in alphabetic order):
[Max-Planck-Institut fuer Kohlenforschung]                               
  Daniel Aravena         : Magnetic Suceptibility                        
  Michael Atanasov       : Ab Initio Ligand Field Theory (pilot matlab implementation)
  Alexander A. Auer      : GIAO ZORA, VPT2 properties, NMR spectrum      
  Ute Becker             : All parallelization in ORCA, NUMFREQ, NUMCALC 
  Giovanni Bistoni       : ED, misc. LED, open-shell LED, HFLD           
  Dmytro Bykov           : pre 5.0 version of the SCF Hessian            
  Marcos Casanova-Páez   : Triplet and SCS-CIS(D). UHF-(DLPNO)-IP/EA/STEOM-CCSD. UHF-CVS-IP/STEOM-CCSD   
  Vijay G. Chilkuri      : MRCI spin determinant printing, contributions to CSF-ICE 
  Pauline Colinet        : FMM embedding                                 
  Dipayan Datta          : RHF DLPNO-CCSD density                        
  Achintya Kumar Dutta   : EOM-CC, STEOM-CC                              
  Nicolas Foglia         : Exact transition moments, OPA infrastructure, MCD improvements    
  Dmitry Ganyushin       : Spin-Orbit,Spin-Spin,Magnetic field MRCI      
  Miquel Garcia-Rates    : C-PCM and meta-GGA Hessian, CCSD/C-PCM, Gaussian charge scheme 
  Tiago L. C. Gouveia    : GS-ROHF, GS-ROCIS                             
  Yang Guo               : DLPNO-NEVPT2, F12-NEVPT2, CIM, IAO-localization        
  Andreas Hansen         : Spin unrestricted coupled pair/coupled cluster methods 
  Ingolf Harden          : AUTO-CI MPn and infrastructure                
  Benjamin Helmich-Paris : MC-RPA, TRAH-(SCF,CASSCF), AVAS, COSX integrals, SCF dyn. polar., MC-PDFT, srDFT 
  Lee Huntington         : MR-EOM, pCC                                   
  Robert Izsak           : Overlap fitted RIJCOSX, COSX-SCS-MP3, EOM     
  Riya Kayal             : Wick's Theorem for AUTO-CI, AUTO-CI UHF-CCSDT 
  Emily Kempfer          : AUTO-CI RHF CISDT and CCSDT, approximate NEVPT4
  Christian Kollmar      : KDIIS, OOCD, Brueckner-CCSD(T), CCSD density, CASPT2, CASPT2-K, improved NEVPT2 
  Axel Koslowski         : Symmetry handling                             
  Simone Kossmann        : meta-GGA functionals, TD-DFT gradient, OOMP2, (MP2 Hessian; deprecated post 5.0) 
  Lucas Lang             : DCDCAS, Hyperfine gauge corrections, ICE-SOC+SSC
  Marvin Lechner         : AUTO-CI (C++ implementation), FIC-MRCC        
  Spencer Leger          : CASSCF response                               
  Dagmar Lenk            : GEPOL surface, SMD, ORCA-2-JSON               
  Dimitrios Liakos       : Extrapolation schemes; Compound Job, Property file
  Dimitrios Manganas     : Further ROCIS development; embedding schemes. LFT, Crystal Embedding 
  Dimitrios Pantazis     : SARC Basis sets                               
  Anastasios Papadopoulos: AUTO-CI, single reference methods and gradients 
  Taras Petrenko         : pre 6.0 DFT Hessian and TD-DFT gradient,  ECA, NRVS 
  Petra Pikulova         : Analytic Raman intensities                    
  Peter Pinski           : DLPNO-MP2, DLPNO-MP2 Gradient                 
  Shashank Vittal Rao    : ES-AILFT, MagRelax                            
  Christoph Reimann      : Effective Core Potentials                     
  Marius Retegan         : Local ZFS, SOC                                
  Christoph Riplinger    : Optimizer, TS searches, QM/MM, DLPNO-CCSD(T), (RO)-DLPNO pert. Triples 
  Michael Roemelt        : Original ROCIS implementation, recursive CI coupling coefficients
  Masaaki Saitow         : Open-shell DLPNO-CCSD energy and density      
  Barbara Sandhoefer     : DKH picture change effects                    
  Yorick L. A. Schmerwitz: GMF and freeze-and-release deltaSCF, NEB S-IDPP initial path                    
  Kantharuban Sivalingam : CASSCF convergence/infrastructure, NEVPT2, NEVPT3, NEVPT4(SD), FIC-MRCI and CEPA variants
  Bernardo de Souza      : ESD, SOC TD-DFT                               
  Georgi L. Stoychev     : AutoAux, RI-MP2 NMR, DLPNO-MP2 response, X2C  
  Van Anh Tran           : RI-MP2 g-tensors                              
  Willem Van den Heuvel  : Paramagnetic NMR                              
  Zikuan Wang            : NOTCH, Electric field optimization            
  Frank Wennmohs         : Technical directorship and infrastructure     
  Hang Xu                : AUTO-CI-Response properties                   
                                                                         
[FACCTs GmbH]                                                            
  Markus Bursch, Nicolas Foglia, Miquel Garcia-Rates, Ingolf Harden, Hagen Neugebauer, Anastasios Papadopoulos, 
  Christoph Riplinger, Bernardo de Souza, Georgi L. Stoychev                                                    
                                                                 
  APM, various basis sets, CI-OPT, improved COSX, DLPNO-Multilevel,           
  DOCKER, DRACO, updates on ESD, Fragmentator, GOAT, IRC, LR-CPCM, L-BFGS, MBIS, meta-GGA TD-DFT gradient, ML-optimized integration grids, 
  MM, NACMEs, nearIR, NEB, NEB-TS, NL-DFT gradient (VV10), 2- and 3-layer-ONIOM, interface openCOSMO-RS, QMMM,   
  Crystal-QMMM, RESP, rigid body optimization, SF, symmetry and pop. for TD-DFT, various functionals, SOLVATOR                                   
                                                                         
[Other institutions]                                                     
  V. Asgeirsson          : NEB                                           
  Christoph Bannwarth    : sTDA-DFT, sTD-DFT, PBEh-3c, B97-3c, D3        
  Giovanni Bistoni       : ETS/NOCV, ADLD/ADEX, COVALED                  
  Martin Brehm           : Molecular dynamics                            
  Ronald Cardenas        : ETS/NOCV                                      
  Martina Colucci        : COVALED                                       
  Sebastian Ehlert       : rSCAN, r2SCAN, r2SCAN-3c, D4, dhf basis sets  
  Marvin Friede          : D4 for Fr, Ra, Ac-Lr                          
  Lars Goerigk           : TD-DFT with DH, B97 family of functionals     
  Stefan Grimme          : VdW corrections, initial TS optimization, DFT functionals, gCP, sTDA/sTD-DF 
  Waldemar Hujo          : DFT-NL                                        
  H. Jonsson             : NEB                                           
  Holger Kruse           : gCP                                           
  Marcel Mueller         : wB97X-3c, vDZP basis set                      
  Hagen Neugebauer       : wr2SCAN, Native XTB                           
  Gianluca Regni         : ADLD/ADEX                                     
  Tobias Risthaus        : pre 6.0 range-separated hybrid DFT and stability analysis
  Lukas Wittmann         : regularized MP2, r2SCAN double-hybrids, wr2SCAN        
                                                                         
We gratefully acknowledge several colleagues who have allowed us to      
interface, adapt or use parts of their codes:                            
  Ed Valeev, F. Pavosevic, A. Kumar             : LibInt (2-el integral package), F12 methods 
  Garnet Chan, S. Sharma, J. Yang, R. Olivares  : DMRG                   
  Ulf Ekstrom                                   : XCFun DFT Library      
  Mihaly Kallay                                 : mrcc  (arbitrary order and MRCC methods)
  Frank Weinhold                                : gennbo (NPA and NBO analysis)           
  Simon Mueller                                 : openCOSMO-RS                            
  Christopher J. Cramer and Donald G. Truhlar   : smd solvation model                     
  S Lehtola, MJT Oliveira, MAL Marques          : LibXC Library                           
  Liviu Ungur et al                             : ANISO software                          


 Your calculation uses the libint2 library for the computation of 2-el integrals
 For citations please refer to: http://libint.valeyev.net

 Your ORCA version has been built with support for libXC version: 7.0.0
 For citations please refer to: https://libxc.gitlab.io

 This ORCA versions uses:
   CBLAS   interface :  Fast vector & matrix operations
   LAPACKE interface :  Fast linear algebra routines
   SCALAPACK package :  Parallel linear algebra routines
   Shared memory     :  Shared parallel matrices
   BLAS/LAPACK       :  OpenBLAS 0.3.29  USE64BITINT DYNAMIC_ARCH NO_AFFINITY SkylakeX SINGLE_THREADED
        Core in use  :  SkylakeX
   Copyright (c) 2011-2014, The OpenBLAS Project


  ***********************************
  * Starting time: Mon Feb 23 02:09:08 2026
  * Host name:     adroit-13
  * Process ID:    3691295
  * Working dir.:  /scratch/network/kp0374/CBE423/2/problem_2
  ***********************************

Warning: RI is on but no J-basis has been assigned. Assigning Def2/J (nothing to worry about!)
================================================================================

----- Orbital basis set information -----
Your calculation utilizes the basis: def2-TZVP
   F. Weigend and R. Ahlrichs, Phys. Chem. Chem. Phys. 7, 3297 (2005).

----- AuxJ basis set information -----
Your calculation utilizes the auxiliary basis: def2/J
   H-Rn: F. Weigend, Phys. Chem. Chem. Phys. 8, 1057 (2006).
   Fr-Lr: K. Eichkorn, F. Weigend, O. Treutler, R. Ahlrichs; Theor. Chem. Acc. 97, 119 (1997).

================================================================================
                                        WARNINGS
                       Please study these warnings very carefully!
================================================================================


WARNING: Geometry Optimization
  ===> : Switching off AutoStart
         For restart on a previous wavefunction, please use MOREAD

================================================================================
                                       INPUT FILE
================================================================================
NAME = orca.inp
|  1> # The first line is called the simple input and is where
|  2> # you can put many of the ORCA input arguments
|  3> ! B3LYP def2-TZVP Opt Freq NormalPrint xyzfile 
|  4> 
|  5> # This line tells ORCA to parallelize over 4 CPU cores
|  6> %pal nprocs 4 end 
|  7> 
|  8> # Here we specify the charge, spin, and coordinates
|  9> # Example coordinates are shown for an H2 molecule
| 10> *xyz 0 1
| 11> N 0.12299000   -1.62281000    0.00000000
| 12> N -0.55232000    0.46173000    0.00000000
| 13> N -0.12299000    1.62281000    0.00000000
| 14> N -0.12299000   -2.72347000    0.00000000 
| 15> N 0.12299000    2.72347000    0.00000000 
| 16> N 0.55232000   -0.46173000    0.00000000
| 17> *
| 18> 
| 19>                          ****END OF INPUT****
================================================================================

                       *****************************
                       * Geometry Optimization Run *
                       *****************************

Geometry optimization settings:
Update method            Update   .... BFGS
Choice of coordinates    CoordSys .... (2022) Redundant Internals
Initial Hessian          InHess   .... Almloef's Model
Max. no of cycles        MaxIter  .... 50

Convergence Tolerances:
Energy Change            TolE     ....  5.0000e-06 Eh
Max. Gradient            TolMAXG  ....  3.0000e-04 Eh/bohr
RMS Gradient             TolRMSG  ....  1.0000e-04 Eh/bohr
Max. Displacement        TolMAXD  ....  4.0000e-03 bohr
RMS Displacement         TolRMSD  ....  2.0000e-03 bohr
Strict Convergence                .... False

------------------------------------------------------------------------------
                        ORCA OPTIMIZATION COORDINATE SETUP
------------------------------------------------------------------------------

The optimization will be done in redundant internal coordinates (2022)
Making redundant internal coordinates   ...  (2022 redundants) done
Evaluating the initial hessian          ...  (Almloef) done
Evaluating the coordinates              ...  done
Calculating the B-matrix                .... done
Calculating the G-matrix                .... done
The number of degrees of freedom        ....   12

    -----------------------------------------------------------------
                    Redundant Internal Coordinates


    -----------------------------------------------------------------
         Definition                    Initial Value    Approx d2E/dq
    -----------------------------------------------------------------
      1. B(N   2,N   1)                  1.2379         0.876306   
      2. B(N   3,N   0)                  1.1278         1.313160   
      3. B(N   4,N   2)                  1.1278         1.313160   
      4. B(N   5,N   1)                  1.4398         0.417416   
      5. B(N   5,N   0)                  1.2379         0.876306   
      6. A(N   3,N   0,N   5)          172.3049         0.516744   
      7. A(N   2,N   1,N   5)          109.6023         0.419008   
      8. A(N   1,N   2,N   4)          172.3049         0.516744   
      9. A(N   0,N   5,N   1)          109.6023         0.419008   
     10. D(N   4,N   2,N   1,N   5)    180.0000         0.063521   
     11. D(N   0,N   5,N   1,N   2)    180.0000         0.012926   
     12. D(N   1,N   5,N   0,N   3)    180.0000         0.063521   
    -----------------------------------------------------------------

Number of atoms                         .... 6
Number of degrees of freedom            .... 12


         *************************************************************
         *                GEOMETRY OPTIMIZATION CYCLE   1            *
         *************************************************************
---------------------------------
CARTESIAN COORDINATES (ANGSTROEM)
---------------------------------
  N      0.122990   -1.622810    0.000000
  N     -0.552320    0.461730    0.000000
  N     -0.122990    1.622810    0.000000
  N     -0.122990   -2.723470    0.000000
  N      0.122990    2.723470    0.000000
  N      0.552320   -0.461730    0.000000

----------------------------
CARTESIAN COORDINATES (A.U.)
----------------------------
  NO LB      ZA    FRAG     MASS         X           Y           Z
   0 N     7.0000    0    14.007    0.232417   -3.066666    0.000000
   1 N     7.0000    0    14.007   -1.043734    0.872543    0.000000
   2 N     7.0000    0    14.007   -0.232417    3.066666    0.000000
   3 N     7.0000    0    14.007   -0.232417   -5.146612    0.000000
   4 N     7.0000    0    14.007    0.232417    5.146612    0.000000
   5 N     7.0000    0    14.007    1.043734   -0.872543    0.000000

--------------------------------
INTERNAL COORDINATES (ANGSTROEM)
--------------------------------
 N      0   0   0     0.000000000000     0.00000000     0.00000000
 N      1   0   0     2.191198440968     0.00000000     0.00000000
 N      2   1   0     1.237913977343   141.75691870     0.00000000
 N      1   2   3     1.127811418633   149.45200287   180.00000000
 N      3   2   1     1.127811418633   172.30491582   180.00000085
 N      1   2   3     1.237913977343    38.24308130     0.00000000

---------------------------
INTERNAL COORDINATES (A.U.)
---------------------------
 N      0   0   0     0.000000000000     0.00000000     0.00000000
 N      1   0   0     4.140764958504     0.00000000     0.00000000
 N      2   1   0     2.339318394531   141.75691870     0.00000000
 N      1   2   3     2.131254711926   149.45200287   180.00000000
 N      3   2   1     2.131254711926   172.30491582   180.00000085
 N      1   2   3     2.339318394531    38.24308130     0.00000000

---------------------
BASIS SET INFORMATION
---------------------
There are 1 groups of distinct atoms

 Group   1 Type N   : 11s6p2d1f contracted to 5s3p2d1f pattern {62111/411/11/1}

Atom   0N    basis set group =>   1
Atom   1N    basis set group =>   1
Atom   2N    basis set group =>   1
Atom   3N    basis set group =>   1
Atom   4N    basis set group =>   1
Atom   5N    basis set group =>   1
---------------------------------
AUXILIARY/J BASIS SET INFORMATION
---------------------------------
There are 1 groups of distinct atoms

 Group   1 Type N   : 12s5p4d2f1g contracted to 6s4p3d1f1g pattern {711111/2111/211/2/1}

Atom   0N    basis set group =>   1
Atom   1N    basis set group =>   1
Atom   2N    basis set group =>   1
Atom   3N    basis set group =>   1
Atom   4N    basis set group =>   1
Atom   5N    basis set group =>   1


           ************************************************************
           *        Program running with 4 parallel MPI-processes     *
           *              working on a common directory               *
           ************************************************************
------------------------------------------------------------------------------
                             ORCA STARTUP CALCULATIONS
                           -- RI-GTO INTEGRALS CHOSEN --
------------------------------------------------------------------------------
------------------------------------------------------------------------------
                   ___                                                        
                  /   \      - P O W E R E D   B Y -                         
                 /     \                                                     
                 |  |  |   _    _      __       _____    __    __             
                 |  |  |  | |  | |    /  \     |  _  \  |  |  /  |          
                  \  \/   | |  | |   /    \    | | | |  |  | /  /          
                 / \  \   | |__| |  /  /\  \   | |_| |  |  |/  /          
                |  |  |   |  __  | /  /__\  \  |    /   |      \           
                |  |  |   | |  | | |   __   |  |    \   |  |\   \          
                \     /   | |  | | |  |  |  |  | |\  \  |  | \   \       
                 \___/    |_|  |_| |__|  |__|  |_| \__\ |__|  \__/        
                                                                              
                      - O R C A' S   B I G   F R I E N D -                    
                                      &                                       
                       - I N T E G R A L  F E E D E R -                       
                                                                              
 v1 FN, 2020, v2 2021, v3 2022-2024                                           
------------------------------------------------------------------------------


----------------------
SHARK INTEGRAL PACKAGE
----------------------

Number of atoms                             ...      6
Number of basis functions                   ...    186
Number of shells                            ...     66
Maximum angular momentum                    ...      3
Integral batch strategy                     ... SHARK/LIBINT Hybrid
RI-J (if used) integral strategy            ... SPLIT-RIJ (Revised 2003 algorithm where possible)
Printlevel                                  ...      1
Contraction scheme used                     ... SEGMENTED contraction
Prescreening option                         ... SCHWARTZ
   Thresh                                   ... 2.500e-11
   Tcut                                     ... 2.500e-12
   Tpresel                                  ... 2.500e-12 
Coulomb Range Separation                    ... NOT USED
Exchange Range Separation                   ... NOT USED
Multipole approximations                    ... NOT USED
Finite Nucleus Model                        ... NOT USED
CABS basis                                  ... NOT available
Auxiliary Coulomb fitting basis             ... AVAILABLE
   # of basis functions in Aux-J            ...    294
   # of shells in Aux-J                     ...     90
   Maximum angular momentum in Aux-J        ...      4
Auxiliary J/K fitting basis                 ... NOT available
Auxiliary Correlation fitting basis         ... NOT available
Auxiliary 'external' fitting basis          ... NOT available

Checking pre-screening integrals            ... done (  0.0 sec) Dimension = 66
   => SHARK Basis and OBASIS are compatible. Storing Pre-screening
Shell pair information
Shell pair cut-off parameter TPreSel        ...   2.5e-12
Total number of shell pairs                 ...      2211
Shell pairs after pre-screening             ...      1984
Total number of primitive shell pairs       ...      7392
Primitive shell pairs kept                  ...      5075
          la=0 lb=0:    393 shell pairs
          la=1 lb=0:    498 shell pairs
          la=1 lb=1:    166 shell pairs
          la=2 lb=0:    314 shell pairs
          la=2 lb=1:    206 shell pairs
          la=2 lb=2:     73 shell pairs
          la=3 lb=0:    150 shell pairs
          la=3 lb=1:    102 shell pairs
          la=3 lb=2:     64 shell pairs
          la=3 lb=3:     18 shell pairs

Checking whether 4 symmetric matrices of dimension 186 fit in memory
:Max Core in MB      =   4096.00
 MB in use           =      5.91
 MB left             =   4090.09
 MB needed           =      0.53
 Data fit in memory  = YES
Calculating RI/J V-Matrix + Cholesky decomp.... done (  0.0 sec)
Calculating Nuclear repulsion               ... done (  0.0 sec) ENN=    192.310992600779 Eh

Diagonalization of the overlap matrix:
Smallest eigenvalue                        ... 1.094e-04
Time for diagonalization                   ...    0.004 sec
Threshold for overlap eigenvalues          ... 1.000e-07
Number of eigenvalues below threshold      ... 0
Time for construction of square roots      ...    0.002 sec
Total time needed                          ...    0.008 sec

-------------------
DFT GRID GENERATION
-------------------

General Integration Accuracy     IntAcc      ... 4.388
Radial Grid Type                 RadialGrid  ... OptM3 with GC (2021)
Angular Grid (max. ang.)         AngularGrid ... 4 (Lebedev-302)
Angular grid pruning method      GridPruning ... 4 (adaptive)
Weight generation scheme         WeightScheme... mBecke (2022)
Basis function cutoff            BFCut       ... 1.0000e-11
Integration weight cutoff        WCut        ... 1.0000e-14
Partially contracted basis set               ... off
Rotationally invariant grid construction     ... off
Angular grids for H and He will be reduced by one unit

Total number of grid points                  ...    36626
Total number of batches                      ...      576
Average number of points per batch           ...       63
Average number of grid points per atom       ...     6104

--------------------
COSX GRID GENERATION
--------------------

GRIDX 1
-------
General Integration Accuracy     IntAcc      ... 3.816
Radial Grid Type                 RadialGrid  ... OptM3 with GC (2021)
Angular Grid (max. ang.)         AngularGrid ... 1 (Lebedev-50)
Angular grid pruning method      GridPruning ... 4 (adaptive)
Weight generation scheme         WeightScheme... mBecke (2022)
Basis function cutoff            BFCut       ... 1.0000e-11
Integration weight cutoff        WCut        ... 1.0000e-14
Partially contracted basis set               ... on
Rotationally invariant grid construction     ... off
Angular grids for H and He will be reduced by one unit

Total number of grid points                  ...     4610
Total number of batches                      ...       38
Average number of points per batch           ...      121
Average number of grid points per atom       ...      768
UseSFitting                                  ... on

GRIDX 2
-------
General Integration Accuracy     IntAcc      ... 4.020
Radial Grid Type                 RadialGrid  ... OptM3 with GC (2021)
Angular Grid (max. ang.)         AngularGrid ... 2 (Lebedev-110)
Angular grid pruning method      GridPruning ... 4 (adaptive)
Weight generation scheme         WeightScheme... mBecke (2022)
Basis function cutoff            BFCut       ... 1.0000e-11
Integration weight cutoff        WCut        ... 1.0000e-14
Partially contracted basis set               ... on
Rotationally invariant grid construction     ... off
Angular grids for H and He will be reduced by one unit

Total number of grid points                  ...    11182
Total number of batches                      ...       90
Average number of points per batch           ...      124
Average number of grid points per atom       ...     1864
UseSFitting                                  ... on

GRIDX 3
-------
General Integration Accuracy     IntAcc      ... 4.338
Radial Grid Type                 RadialGrid  ... OptM3 with GC (2021)
Angular Grid (max. ang.)         AngularGrid ... 3 (Lebedev-194)
Angular grid pruning method      GridPruning ... 4 (adaptive)
Weight generation scheme         WeightScheme... mBecke (2022)
Basis function cutoff            BFCut       ... 1.0000e-11
Integration weight cutoff        WCut        ... 1.0000e-14
Partially contracted basis set               ... on
Rotationally invariant grid construction     ... off
Angular grids for H and He will be reduced by one unit

Total number of grid points                  ...    24898
Total number of batches                      ...      196
Average number of points per batch           ...      127
Average number of grid points per atom       ...     4150
UseSFitting                                  ... on
Grids setup in   0.4 sec
Initializing property integral containers    ... done (  0.0 sec)

SHARK setup successfully completed in   0.6 seconds

Maximum memory used throughout the entire STARTUP-calculation: 14.8 MB


           ************************************************************
           *        Program running with 4 parallel MPI-processes     *
           *              working on a common directory               *
           ************************************************************
-------------------------------------------------------------------------------
                                 ORCA GUESS
                   Start orbitals & Density for SCF / CASSCF
-------------------------------------------------------------------------------

------------
SCF SETTINGS
------------
Hamiltonian:
 Density Functional     Method          .... DFT(GTOs)
 Exchange Functional    Exchange        .... B88
   X-Alpha parameter    XAlpha          ....  0.666667
   Becke's b parameter  XBeta           ....  0.004200
 Correlation Functional Correlation     .... LYP
 LDA part of GGA corr.  LDAOpt          .... VWN-5
 Gradients option       PostSCFGGA      .... off
 Hybrid DFT is turned on
   Fraction HF Exchange ScalHFX         ....  0.200000
   Scaling of DF-GGA-X  ScalDFX         ....  0.720000
   Scaling of DF-GGA-C  ScalDFC         ....  0.810000
   Scaling of DF-LDA-C  ScalLDAC        ....  1.000000
   Perturbative correction              ....  0.000000
   NL short-range parameter             ....  4.800000
 RI-approximation to the Coulomb term is turned on
   Number of AuxJ basis functions       .... 294
   RIJ-COSX (HFX calculated with COS-X)).... on


General Settings:
 Integral files         IntName         .... orca
 Hartree-Fock type      HFTyp           .... RHF
 Total Charge           Charge          ....    0
 Multiplicity           Mult            ....    1
 Number of Electrons    NEL             ....   42
 Basis Dimension        Dim             ....  186
 Nuclear Repulsion      ENuc            ....    192.3109926008 Eh

Convergence Acceleration:
 AO-DIIS                CNVDIIS         .... on
   Start iteration      DIISMaxIt       ....    12
   Startup error        DIISStart       ....  0.200000
   # of expansion vecs  DIISMaxEq       ....     5
   Bias factor          DIISBfac        ....   1.050
   Max. coefficient     DIISMaxC        ....  10.000
 MO-DIIS                CNVKDIIS        .... off
 Trust-Rad. Augm. Hess. CNVTRAH         .... auto
   Auto Start mean grad. ratio tolernc. ....  1.125000
   Auto Start start iteration           ....    50
   Auto Start num. interpolation iter.  ....    10
   Max. Number of Micro iterations      ....    24
   Max. Number of Macro iterations      .... Maxiter - #DIIS iter
   Number of Davidson start vectors     ....     2
   Converg. threshold    (grad. norm)   ....   1.000e-05
   Grad. Scal. Fac. for Micro threshold ....   0.100
   Minimum threshold for Micro iter.    ....   1.000e-02
   NR start threshold (gradient norm)   ....   1.000e-04
   Initial trust radius                 ....   0.400
   Minimum AH scaling param. (alpha)    ....   1.000
   Maximum AH scaling param. (alpha)    .... 1000.000
   Quad. conv. algorithm                .... NR
   White noise on init. David. guess    .... on
   Maximum white noise                  ....   0.010
   Pseudo random numbers                .... off
   Inactive MOs                         .... canonical
   Orbital update algorithm             .... Taylor
   Preconditioner                       .... Diag
   Full preconditioner red. dimension   ....   250
 SOSCF                 CNVSOSCF           .... on
   Start iteration     SOSCFMaxIt         ....   150
   Startup grad/error  SOSCFStart         ....  0.003300
   Hessian update      SOSCFHessUp        .... L-BFGS
   Autom. constraints  SOSCFAutoConstrain .... off
 Level Shifting         CNVShift        .... on
   Level shift para.    LevelShift      ....    0.2500
   Turn off err/grad.   ShiftErr        ....    0.0010
 Zerner damping         CNVZerner       .... off
 Static damping         CNVDamp         .... on
   Fraction old density DampFac         ....    0.7000
   Max. Damping (<1)    DampMax         ....    0.9800
   Min. Damping (>=0)   DampMin         ....    0.0000
   Turn off err/grad.   DampErr         ....    0.1000

SCF Procedure:
 Maximum # iterations   MaxIter         ....   125
 SCF integral mode      SCFMode         .... Direct
   Integral package                     .... SHARK and LIBINT hybrid scheme
 Reset frequency        DirectResetFreq ....    20
 Integral Threshold     Thresh          ....  2.500e-11 Eh
 Primitive CutOff       TCut            ....  2.500e-12 Eh

Convergence Tolerance:
 Convergence Check Mode ConvCheckMode   .... Total+1el-Energy
 Convergence forced     ConvForced      .... 0
 Energy Change          TolE            ....  1.000e-08 Eh
 1-El. energy change                    ....  1.000e-05 Eh
 Orbital Gradient       TolG            ....  1.000e-05
 Orbital Rotation angle TolX            ....  1.000e-05
 DIIS Error             TolErr          ....  5.000e-07

------------------------------
INITIAL GUESS: MODEL POTENTIAL
------------------------------
Loading Hartree-Fock densities                     ... done
Calculating cut-offs                               ... done
Initializing the effective Hamiltonian             ... done
Setting up the integral package (SHARK)            ... done
Starting the Coulomb interaction                   ... done (   0.0 sec)
Making the grid                                    ... done (   0.1 sec)
Mapping shells                                     ... done
Starting the XC term evaluation                    ... done (   0.0 sec)
  promolecular density results
     # of electrons  =     41.999897387
     EX              =    -39.347890435
     EC              =     -1.493166289
     EX+EC           =    -40.841056725
Transforming the Hamiltonian                       ... done (   0.0 sec)
Diagonalizing the Hamiltonian                      ... done (   0.0 sec)
Back transforming the eigenvectors                 ... done (   0.0 sec)
Now organizing SCF variables                       ... done
                      ------------------
                      INITIAL GUESS DONE (   0.1 sec)
                      ------------------
             **** ENERGY FILE WAS UPDATED (orca.en.tmp) ****
Finished Guess after   0.3 sec
Maximum memory used throughout the entire GUESS-calculation: 11.0 MB


           ************************************************************
           *        Program running with 4 parallel MPI-processes     *
           *              working on a common directory               *
           ************************************************************

-------------------------------------------------------------------------------------------
                                      ORCA LEAN-SCF
                              memory conserving SCF solver
-------------------------------------------------------------------------------------------

----------------------------------------D-I-I-S--------------------------------------------
Iteration    Energy (Eh)           Delta-E    RMSDP     MaxDP     DIISErr   Damp  Time(sec)
-------------------------------------------------------------------------------------------
               ***  Starting incremental Fock matrix formation  ***
    1    -328.2272905555432772     0.00e+00  3.30e-03  5.84e-02  1.48e-01  0.700   0.9
    2    -328.2633546506579023    -3.61e-02  2.44e-03  4.39e-02  5.85e-02  0.700   0.5
                               ***Turning on AO-DIIS***
    3    -328.2764433779759656    -1.31e-02  1.21e-03  2.28e-02  2.70e-02  0.700   0.5
    4    -328.2854713687097501    -9.03e-03  1.92e-03  3.08e-02  1.62e-02  0.000   0.5
    5    -328.3049335671340714    -1.95e-02  3.34e-04  5.67e-03  6.36e-03  0.000   0.5
                              *** Initializing SOSCF ***
---------------------------------------S-O-S-C-F--------------------------------------
Iteration    Energy (Eh)           Delta-E    RMSDP     MaxDP     MaxGrad    Time(sec)
--------------------------------------------------------------------------------------
    6    -328.3050477469467978    -1.14e-04  1.19e-04  1.48e-03  2.62e-03     0.5
               *** Restarting incremental Fock matrix formation ***
    7    -328.3050656873799653    -1.79e-05  1.11e-04  1.39e-03  7.81e-04     0.9
    8    -328.3050323369550370     3.34e-05  8.68e-05  9.21e-04  2.25e-03     0.8
    9    -328.3050701820321819    -3.78e-05  1.42e-05  2.31e-04  6.99e-05     0.7
   10    -328.3050702273259276    -4.53e-08  5.82e-06  9.75e-05  4.87e-05     0.7
   11    -328.3050702760376680    -4.87e-08  2.72e-06  3.15e-05  2.13e-05     0.6
   12    -328.3050702756602277     3.77e-10  1.75e-06  2.23e-05  2.24e-05     0.6
                 **** Energy Check signals convergence ****

               *****************************************************
               *                     SUCCESS                       *
               *           SCF CONVERGED AFTER  12 CYCLES          *
               *****************************************************

Recomputing exchange energy using gridx3       ... done (    1.349 sec)
Old exchange energy                            :     -7.868795370 Eh
New exchange energy                            :     -7.868785390 Eh
Exchange energy change after final integration :      0.000009980 Eh
Total energy after final integration           :   -328.305060302 Eh
             **** ENERGY FILE WAS UPDATED (orca.en.tmp) ****

----------------
TOTAL SCF ENERGY
----------------

Total Energy       :       -328.30506030166470 Eh           -8933.63487 eV

Components:
Nuclear Repulsion  :        192.31099260077926 Eh            5233.04815 eV
Electronic Energy  :       -520.61606288222265 Eh          -14166.68329 eV
One Electron Energy:       -824.73258005234686 Eh          -22442.11444 eV
Two Electron Energy:        304.11651717012415 Eh            8275.43115 eV

Virial components:
Potential Energy   :       -655.38240589226848 Eh          -17833.86192 eV
Kinetic Energy     :        327.07734559060373 Eh            8900.22705 eV
Virial Ratio       :          2.00375359139852

DFT components:
N(Alpha)           :       21.000004127424 electrons
N(Beta)            :       21.000004127424 electrons
N(Total)           :       42.000008254848 electrons
E(X)               :      -31.476379560404 Eh       
E(C)               :       -1.754331083537 Eh       
E(XC)              :      -33.230710643941 Eh       

---------------
SCF CONVERGENCE
---------------

  Last Energy change         ...   -3.7744e-10  Tolerance :   1.0000e-08
  Last MAX-Density change    ...    2.2254e-05  Tolerance :   1.0000e-07
  Last RMS-Density change    ...    1.7549e-06  Tolerance :   5.0000e-09
  Last DIIS Error            ...    2.6238e-03  Tolerance :   5.0000e-07
  Last Orbital Gradient      ...    2.2368e-05  Tolerance :   1.0000e-05
  Last Orbital Rotation      ...    1.5486e-05  Tolerance :   1.0000e-05


----------------
ORBITAL ENERGIES
----------------

  NO   OCC          E(Eh)            E(eV) 
   0   2.0000     -14.512167      -394.8961 
   1   2.0000     -14.512152      -394.8957 
   2   2.0000     -14.423805      -392.4917 
   3   2.0000     -14.423688      -392.4885 
   4   2.0000     -14.421891      -392.4396 
   5   2.0000     -14.421888      -392.4395 
   6   2.0000      -1.191827       -32.4313 
   7   2.0000      -1.170175       -31.8421 
   8   2.0000      -1.058045       -28.7909 
   9   2.0000      -0.975512       -26.5450 
  10   2.0000      -0.695736       -18.9319 
  11   2.0000      -0.567920       -15.4539 
  12   2.0000      -0.559982       -15.2379 
  13   2.0000      -0.530698       -14.4410 
  14   2.0000      -0.520803       -14.1718 
  15   2.0000      -0.489425       -13.3179 
  16   2.0000      -0.476532       -12.9671 
  17   2.0000      -0.429765       -11.6945 
  18   2.0000      -0.361907        -9.8480 
  19   2.0000      -0.329596        -8.9688 
  20   2.0000      -0.252097        -6.8599 
  21   0.0000      -0.092267        -2.5107 
  22   0.0000      -0.057082        -1.5533 
  23   0.0000      -0.030452        -0.8286 
  24   0.0000       0.007276         0.1980 
  25   0.0000       0.105686         2.8759 
  26   0.0000       0.120871         3.2891 
  27   0.0000       0.201235         5.4759 
  28   0.0000       0.235982         6.4214 
  29   0.0000       0.256002         6.9662 
  30   0.0000       0.256204         6.9717 
  31   0.0000       0.266221         7.2442 
*Only the first 10 virtual orbitals were printed.

                    ********************************
                    * MULLIKEN POPULATION ANALYSIS *
                    ********************************

-----------------------
MULLIKEN ATOMIC CHARGES
-----------------------
   0 N :    0.384250
   1 N :   -0.233443
   2 N :    0.384248
   3 N :   -0.150808
   4 N :   -0.150805
   5 N :   -0.233442
Sum of atomic charges:    0.0000000

--------------------------------
MULLIKEN REDUCED ORBITAL CHARGES
--------------------------------
  0 N s       :     3.285979  s :     3.285979
      pz      :     1.195789  p :     3.173131
      px      :     1.148497
      py      :     0.828845
      dz2     :     0.005943  d :     0.144456
      dxz     :     0.006618
      dyz     :     0.071249
      dx2y2   :     0.020107
      dxy     :     0.040539
      f0      :     0.001692  f :     0.012184
      f+1     :     0.000402
      f-1     :     0.001340
      f+2     :     0.001860
      f-2     :     0.000717
      f+3     :     0.003228
      f-3     :     0.002944

  1 N s       :     3.818799  s :     3.818799
      pz      :     1.425929  p :     3.325824
      px      :     1.131138
      py      :     0.768757
      dz2     :     0.007435  d :     0.082418
      dxz     :     0.009839
      dyz     :     0.020530
      dx2y2   :     0.018988
      dxy     :     0.025626
      f0      :     0.000889  f :     0.006402
      f+1     :     0.000577
      f-1     :     0.000885
      f+2     :     0.000449
      f-2     :     0.000805
      f+3     :     0.001496
      f-3     :     0.001301

  2 N s       :     3.285979  s :     3.285979
      pz      :     1.195789  p :     3.173133
      px      :     1.148497
      py      :     0.828847
      dz2     :     0.005943  d :     0.144456
      dxz     :     0.006618
      dyz     :     0.071249
      dx2y2   :     0.020107
      dxy     :     0.040539
      f0      :     0.001692  f :     0.012184
      f+1     :     0.000402
      f-1     :     0.001340
      f+2     :     0.001860
      f-2     :     0.000717
      f+3     :     0.003228
      f-3     :     0.002944

  3 N s       :     3.949663  s :     3.949663
      pz      :     1.240581  p :     3.132051
      px      :     0.890770
      py      :     1.000701
      dz2     :     0.004614  d :     0.064226
      dxz     :     0.001063
      dyz     :     0.020227
      dx2y2   :     0.016311
      dxy     :     0.022011
      f0      :     0.000755  f :     0.004868
      f+1     :     0.000192
      f-1     :     0.000490
      f+2     :     0.000809
      f-2     :     0.000198
      f+3     :     0.001325
      f-3     :     0.001100

  4 N s       :     3.949660  s :     3.949660
      pz      :     1.240581  p :     3.132051
      px      :     0.890769
      py      :     1.000701
      dz2     :     0.004614  d :     0.064226
      dxz     :     0.001063
      dyz     :     0.020227
      dx2y2   :     0.016311
      dxy     :     0.022011
      f0      :     0.000755  f :     0.004868
      f+1     :     0.000192
      f-1     :     0.000490
      f+2     :     0.000809
      f-2     :     0.000198
      f+3     :     0.001325
      f-3     :     0.001100

  5 N s       :     3.818798  s :     3.818798
      pz      :     1.425929  p :     3.325824
      px      :     1.131138
      py      :     0.768757
      dz2     :     0.007435  d :     0.082418
      dxz     :     0.009839
      dyz     :     0.020530
      dx2y2   :     0.018988
      dxy     :     0.025626
      f0      :     0.000889  f :     0.006402
      f+1     :     0.000577
      f-1     :     0.000885
      f+2     :     0.000449
      f-2     :     0.000805
      f+3     :     0.001496
      f-3     :     0.001301


------------------------
MULLIKEN OVERLAP CHARGES
------------------------
B(  0-N ,  1-N ) :  -0.0552 B(  0-N ,  3-N ) :   0.7026 B(  0-N ,  5-N ) :   0.5562 
B(  1-N ,  2-N ) :   0.5562 B(  1-N ,  4-N ) :  -0.3049 B(  2-N ,  4-N ) :   0.7026 
B(  2-N ,  5-N ) :  -0.0552 B(  3-N ,  5-N ) :  -0.3049 


                     *******************************
                     * LOEWDIN POPULATION ANALYSIS *
                     *******************************

----------------------
LOEWDIN ATOMIC CHARGES
----------------------
   0 N :    0.069571
   1 N :   -0.095812
   2 N :    0.069571
   3 N :    0.026241
   4 N :    0.026241
   5 N :   -0.095812

-------------------------------
LOEWDIN REDUCED ORBITAL CHARGES
-------------------------------
  0 N s       :     2.950088  s :     2.950088
      pz      :     1.084995  p :     3.442673
      px      :     1.088377
      py      :     1.269301
      dz2     :     0.032450  d :     0.504861
      dxz     :     0.019383
      dyz     :     0.213461
      dx2y2   :     0.095632
      dxy     :     0.143935
      f0      :     0.002805  f :     0.032807
      f+1     :     0.000991
      f-1     :     0.006234
      f+2     :     0.003479
      f-2     :     0.001207
      f+3     :     0.009305
      f-3     :     0.008785

  1 N s       :     3.187512  s :     3.187512
      pz      :     1.336576  p :     3.583449
      px      :     1.267592
      py      :     0.979281
      dz2     :     0.029841  d :     0.290351
      dxz     :     0.021585
      dyz     :     0.059357
      dx2y2   :     0.078873
      dxy     :     0.100695
      f0      :     0.002910  f :     0.034500
      f+1     :     0.001734
      f-1     :     0.004292
      f+2     :     0.002334
      f-2     :     0.004537
      f+3     :     0.008893
      f-3     :     0.009800

  2 N s       :     2.950088  s :     2.950088
      pz      :     1.084995  p :     3.442673
      px      :     1.088377
      py      :     1.269301
      dz2     :     0.032450  d :     0.504861
      dxz     :     0.019383
      dyz     :     0.213461
      dx2y2   :     0.095632
      dxy     :     0.143935
      f0      :     0.002805  f :     0.032807
      f+1     :     0.000991
      f-1     :     0.006234
      f+2     :     0.003479
      f-2     :     0.001207
      f+3     :     0.009305
      f-3     :     0.008785

  3 N s       :     3.373536  s :     3.373536
      pz      :     1.183993  p :     3.391761
      px      :     0.900177
      py      :     1.307592
      dz2     :     0.018424  d :     0.178277
      dxz     :     0.002710
      dyz     :     0.050779
      dx2y2   :     0.056160
      dxy     :     0.050204
      f0      :     0.003773  f :     0.030185
      f+1     :     0.000806
      f-1     :     0.003973
      f+2     :     0.004972
      f-2     :     0.001143
      f+3     :     0.008017
      f-3     :     0.007501

  4 N s       :     3.373536  s :     3.373536
      pz      :     1.183993  p :     3.391761
      px      :     0.900177
      py      :     1.307592
      dz2     :     0.018424  d :     0.178277
      dxz     :     0.002710
      dyz     :     0.050779
      dx2y2   :     0.056160
      dxy     :     0.050204
      f0      :     0.003773  f :     0.030185
      f+1     :     0.000806
      f-1     :     0.003973
      f+2     :     0.004972
      f-2     :     0.001143
      f+3     :     0.008017
      f-3     :     0.007501

  5 N s       :     3.187512  s :     3.187512
      pz      :     1.336576  p :     3.583449
      px      :     1.267592
      py      :     0.979281
      dz2     :     0.029841  d :     0.290351
      dxz     :     0.021585
      dyz     :     0.059357
      dx2y2   :     0.078873
      dxy     :     0.100695
      f0      :     0.002910  f :     0.034500
      f+1     :     0.001734
      f-1     :     0.004292
      f+2     :     0.002334
      f-2     :     0.004537
      f+3     :     0.008893
      f-3     :     0.009800


---------------------------------
LOEWDIN BOND ORDERS (THRESH 0.050000)
---------------------------------
B(  0-N ,  1-N ) :   0.2078 B(  0-N ,  3-N ) :   3.0353 B(  0-N ,  5-N ) :   2.0828 
B(  1-N ,  2-N ) :   2.0828 B(  1-N ,  3-N ) :   0.0668 B(  1-N ,  4-N ) :   0.4854 
B(  1-N ,  5-N ) :   1.3215 B(  2-N ,  4-N ) :   3.0353 B(  2-N ,  5-N ) :   0.2078 
B(  3-N ,  5-N ) :   0.4854 B(  4-N ,  5-N ) :   0.0668 

------------------------------------------
LOEWDIN REDUCED ORBITAL POPULATIONS PER MO
-------------------------------------------
THRESHOLD FOR PRINTING IS 0.1%%
                      0         1         2         3         4         5   
                 -14.51217 -14.51215 -14.42381 -14.42369 -14.42189 -14.42189
                   2.00000   2.00000   2.00000   2.00000   2.00000   2.00000
                  --------  --------  --------  --------  --------  --------
 0 N  s              49.5      49.4       0.0       0.0       0.0       0.0
 0 N  dx2y2           0.0       0.0       0.0       0.1       0.1       0.1
 1 N  s               0.0       0.0      49.8      49.8       0.0       0.0
 2 N  s              49.5      49.4       0.0       0.0       0.0       0.0
 2 N  dx2y2           0.0       0.0       0.0       0.1       0.1       0.1
 3 N  s               0.0       0.0       0.0       0.0      49.8      49.5
 3 N  dx2y2           0.1       0.1       0.0       0.0       0.0       0.0
 4 N  s               0.0       0.0       0.0       0.0      49.5      49.8
 4 N  dx2y2           0.1       0.1       0.0       0.0       0.0       0.0
 5 N  s               0.0       0.0      49.8      49.8       0.0       0.0

                      6         7         8         9        10        11   
                  -1.19183  -1.17018  -1.05804  -0.97551  -0.69574  -0.56792
                   2.00000   2.00000   2.00000   2.00000   2.00000   2.00000
                  --------  --------  --------  --------  --------  --------
 0 N  s              19.9      19.8       0.4       1.0       2.7       0.5
 0 N  px              0.0       0.0       1.0       2.2       5.8      17.6
 0 N  py              0.1       1.6      20.4      21.5       3.3       2.2
 0 N  dz2             0.4       0.3       0.0       0.0       0.1       0.0
 0 N  dx2y2           0.9       0.7       0.0       0.0       0.7       0.1
 0 N  dxy             0.2       0.2       0.0       0.1       0.1       0.1
 0 N  f-1             0.0       0.0       0.1       0.1       0.0       0.0
 0 N  f+3             0.0       0.0       0.1       0.1       0.1       0.1
 0 N  f-3             0.0       0.0       0.1       0.1       0.0       0.1
 1 N  s              11.0       2.4      13.2       8.5       2.7       4.7
 1 N  px              2.0       0.1       2.2       0.4       4.0      13.1
 1 N  py              0.7       5.4       0.8       7.8      24.9       1.4
 1 N  dz2             0.4       0.1       0.2       0.0       0.0       0.1
 1 N  dx2y2           0.3       0.2       0.0       0.1       1.4       0.8
 1 N  dxy             0.0       0.5       0.2       0.8       1.0       0.3
 2 N  s              19.9      19.8       0.4       1.0       2.7       0.5
 2 N  px              0.0       0.0       1.0       2.2       5.8      17.6
 2 N  py              0.1       1.6      20.4      21.5       3.3       2.2
 2 N  dz2             0.4       0.3       0.0       0.0       0.1       0.0
 2 N  dx2y2           0.9       0.7       0.0       0.0       0.7       0.1
 2 N  dxy             0.2       0.2       0.0       0.1       0.1       0.1
 2 N  f-1             0.0       0.0       0.1       0.1       0.0       0.0
 2 N  f+3             0.0       0.0       0.1       0.1       0.1       0.1
 2 N  f-3             0.0       0.0       0.1       0.1       0.0       0.1
 3 N  s               8.1      11.3       8.2       5.7       1.7       0.6
 3 N  px              0.3       0.3       0.1       0.1       0.8       6.0
 3 N  py              4.6       5.8       2.6       1.4       0.3       1.3
 3 N  dz2             0.2       0.3       0.1       0.0       0.0       0.0
 3 N  dx2y2           0.5       0.6       0.1       0.0       0.0       0.3
 3 N  dxy             0.1       0.1       0.0       0.0       0.2       0.6
 4 N  s               8.1      11.3       8.2       5.7       1.7       0.6
 4 N  px              0.3       0.3       0.1       0.1       0.8       6.0
 4 N  py              4.6       5.8       2.6       1.4       0.3       1.3
 4 N  dz2             0.2       0.3       0.1       0.0       0.0       0.0
 4 N  dx2y2           0.5       0.6       0.1       0.0       0.0       0.3
 4 N  dxy             0.1       0.1       0.0       0.0       0.2       0.6
 5 N  s              11.0       2.4      13.2       8.5       2.7       4.7
 5 N  px              2.0       0.1       2.2       0.4       4.0      13.1
 5 N  py              0.7       5.4       0.8       7.8      24.9       1.4
 5 N  dz2             0.4       0.1       0.2       0.0       0.0       0.1
 5 N  dx2y2           0.3       0.2       0.0       0.1       1.4       0.8
 5 N  dxy             0.0       0.5       0.2       0.8       1.0       0.3

                     12        13        14        15        16        17   
                  -0.55998  -0.53070  -0.52080  -0.48942  -0.47653  -0.42976
                   2.00000   2.00000   2.00000   2.00000   2.00000   2.00000
                  --------  --------  --------  --------  --------  --------
 0 N  s               0.0       0.0       1.6       1.5       0.5       0.1
 0 N  pz             23.9      27.6       0.0       0.0       0.0       0.0
 0 N  px              0.0       0.0      17.3       0.9       2.4       6.9
 0 N  py              0.0       0.0       2.0       3.6       6.4       0.7
 0 N  dz2             0.0       0.0       0.2       0.2       0.1       0.0
 0 N  dyz             0.0       0.1       0.0       0.0       0.0       0.0
 0 N  dx2y2           0.0       0.0       0.6       0.4       0.1       0.2
 0 N  dxy             0.0       0.0       0.0       0.4       0.4       2.5
 1 N  s               0.0       0.0       2.7       0.5       0.2       8.5
 1 N  pz             14.6       4.7       0.0       0.0       0.0       0.0
 1 N  px              0.0       0.0       3.0       0.0       0.2      11.3
 1 N  py              0.0       0.0       0.7       0.1       2.3       4.6
 1 N  dz2             0.0       0.0       0.1       0.1       0.0       0.4
 1 N  dxz             0.4       0.0       0.0       0.0       0.0       0.0
 1 N  dyz             0.2       1.4       0.0       0.0       0.0       0.0
 1 N  dx2y2           0.0       0.0       0.0       0.1       0.0       0.0
 1 N  dxy             0.0       0.0       1.1       0.1       0.3       0.7
 1 N  f-3             0.0       0.0       0.1       0.0       0.0       0.2
 2 N  s               0.0       0.0       1.6       1.5       0.5       0.1
 2 N  pz             23.9      27.6       0.0       0.0       0.0       0.0
 2 N  px              0.0       0.0      17.3       0.9       2.4       6.9
 2 N  py              0.0       0.0       2.0       3.6       6.4       0.7
 2 N  dz2             0.0       0.0       0.2       0.2       0.1       0.0
 2 N  dyz             0.0       0.1       0.0       0.0       0.0       0.0
 2 N  dx2y2           0.0       0.0       0.6       0.4       0.1       0.2
 2 N  dxy             0.0       0.0       0.0       0.4       0.4       2.5
 3 N  s               0.0       0.0       4.1      16.6      12.8       0.3
 3 N  pz              9.3      14.3       0.0       0.0       0.0       0.0
 3 N  px              0.0       0.0       7.5       4.0       7.0      10.2
 3 N  py              0.0       0.0       7.5      20.9      16.7       3.0
 3 N  dz2             0.0       0.0       0.1       0.1       0.1       0.0
 3 N  dyz             1.0       1.2       0.0       0.0       0.0       0.0
 3 N  dx2y2           0.0       0.0       0.6       0.2       0.1       0.1
 3 N  dxy             0.0       0.0       0.5       0.2       0.3       0.3
 3 N  f+2             0.1       0.1       0.0       0.0       0.0       0.0
 4 N  s               0.0       0.0       4.1      16.6      12.8       0.3
 4 N  pz              9.3      14.3       0.0       0.0       0.0       0.0
 4 N  px              0.0       0.0       7.5       4.0       7.0      10.2
 4 N  py              0.0       0.0       7.5      20.9      16.7       3.0
 4 N  dz2             0.0       0.0       0.1       0.1       0.1       0.0
 4 N  dyz             1.0       1.2       0.0       0.0       0.0       0.0
 4 N  dx2y2           0.0       0.0       0.6       0.2       0.1       0.1
 4 N  dxy             0.0       0.0       0.5       0.2       0.3       0.3
 4 N  f+2             0.1       0.1       0.0       0.0       0.0       0.0
 5 N  s               0.0       0.0       2.7       0.5       0.2       8.5
 5 N  pz             14.6       4.7       0.0       0.0       0.0       0.0
 5 N  px              0.0       0.0       3.0       0.0       0.2      11.3
 5 N  py              0.0       0.0       0.7       0.1       2.3       4.6
 5 N  dz2             0.0       0.0       0.1       0.1       0.0       0.4
 5 N  dxz             0.4       0.0       0.0       0.0       0.0       0.0
 5 N  dyz             0.2       1.4       0.0       0.0       0.0       0.0
 5 N  dx2y2           0.0       0.0       0.0       0.1       0.0       0.0
 5 N  dxy             0.0       0.0       1.1       0.1       0.3       0.7
 5 N  f-3             0.0       0.0       0.1       0.0       0.0       0.2

                     18        19        20        21        22        23   
                  -0.36191  -0.32960  -0.25210  -0.09227  -0.05708  -0.03045
                   2.00000   2.00000   2.00000   0.00000   0.00000   0.00000
                  --------  --------  --------  --------  --------  --------
 0 N  s               0.0       0.6       0.0       0.0       1.0       0.0
 0 N  pz              1.7       0.0       1.0       0.0       0.0      17.0
 0 N  px              0.0       0.3       0.0      10.9      11.4       0.0
 0 N  py              0.0       1.4       0.0       0.6       1.4       0.0
 0 N  dz2             0.0       0.1       0.0       0.0       0.1       0.0
 0 N  dxz             0.3       0.0       0.7       0.0       0.0       0.0
 0 N  dyz             4.9       0.0       5.7       0.0       0.0       0.6
 0 N  dx2y2           0.0       0.9       0.0       1.3       0.1       0.0
 0 N  dxy             0.0       3.1       0.0       1.8       2.2       0.0
 0 N  f0              0.0       0.0       0.0       0.0       0.0       0.4
 0 N  f+2             0.0       0.0       0.0       0.0       0.0       0.5
 0 N  f-2             0.0       0.0       0.0       0.0       0.0       0.1
 0 N  f+3             0.0       0.0       0.0       0.3       0.3       0.0
 0 N  f-3             0.0       0.0       0.0       0.1       0.4       0.0
 1 N  s               0.0       5.4       0.0       2.4       1.6       0.0
 1 N  pz             24.8       0.0      22.7       0.0       0.0       5.8
 1 N  px              0.0      27.0       0.0       0.2       4.5       0.0
 1 N  py              0.0       0.2       0.0       2.9       0.7       0.0
 1 N  dz2             0.0       0.1       0.0       0.6       0.0       0.0
 1 N  dxz             0.2       0.0       0.4       0.0       0.0       0.0
 1 N  dyz             0.7       0.0       0.6       0.0       0.0       2.7
 1 N  dx2y2           0.0       1.0       0.0       0.5       0.4       0.0
 1 N  dxy             0.0       0.0       0.0       2.8       2.4       0.0
 1 N  f+2             0.0       0.0       0.0       0.0       0.0       0.2
 1 N  f-2             0.1       0.0       0.1       0.0       0.0       0.2
 1 N  f-3             0.0       0.0       0.0       0.4       0.3       0.0
 2 N  s               0.0       0.6       0.0       0.0       1.0       0.0
 2 N  pz              1.7       0.0       1.0       0.0       0.0      17.0
 2 N  px              0.0       0.3       0.0      10.9      11.4       0.0
 2 N  py              0.0       1.4       0.0       0.6       1.4       0.0
 2 N  dz2             0.0       0.1       0.0       0.0       0.1       0.0
 2 N  dxz             0.3       0.0       0.7       0.0       0.0       0.0
 2 N  dyz             4.9       0.0       5.7       0.0       0.0       0.6
 2 N  dx2y2           0.0       0.9       0.0       1.3       0.1       0.0
 2 N  dxy             0.0       3.1       0.0       1.8       2.2       0.0
 2 N  f0              0.0       0.0       0.0       0.0       0.0       0.4
 2 N  f+2             0.0       0.0       0.0       0.0       0.0       0.5
 2 N  f-2             0.0       0.0       0.0       0.0       0.0       0.1
 2 N  f+3             0.0       0.0       0.0       0.3       0.3       0.0
 2 N  f-3             0.0       0.0       0.0       0.1       0.4       0.0
 3 N  s               0.0       0.0       0.0       0.0       0.4       0.0
 3 N  pz             17.2       0.0      18.5       0.0       0.0      18.1
 3 N  px              0.0       8.7       0.0      21.7      18.0       0.0
 3 N  py              0.0       1.0       0.0       0.8       1.6       0.0
 3 N  dxz             0.0       0.0       0.0       0.0       0.0       0.2
 3 N  dyz             0.1       0.0       0.2       0.0       0.0       3.6
 3 N  dx2y2           0.0       0.0       0.0       0.4       0.6       0.0
 3 N  dxy             0.0       0.0       0.0       1.9       2.2       0.0
 3 N  f0              0.0       0.0       0.0       0.0       0.0       0.2
 3 N  f+2             0.0       0.0       0.0       0.0       0.0       0.3
 3 N  f+3             0.0       0.0       0.0       0.2       0.3       0.0
 3 N  f-3             0.0       0.0       0.0       0.1       0.1       0.0
 4 N  s               0.0       0.0       0.0       0.0       0.4       0.0
 4 N  pz             17.2       0.0      18.5       0.0       0.0      18.1
 4 N  px              0.0       8.7       0.0      21.7      18.0       0.0
 4 N  py              0.0       1.0       0.0       0.8       1.6       0.0
 4 N  dxz             0.0       0.0       0.0       0.0       0.0       0.2
 4 N  dyz             0.1       0.0       0.2       0.0       0.0       3.6
 4 N  dx2y2           0.0       0.0       0.0       0.4       0.6       0.0
 4 N  dxy             0.0       0.0       0.0       1.9       2.2       0.0
 4 N  f0              0.0       0.0       0.0       0.0       0.0       0.2
 4 N  f+2             0.0       0.0       0.0       0.0       0.0       0.3
 4 N  f+3             0.0       0.0       0.0       0.2       0.3       0.0
 4 N  f-3             0.0       0.0       0.0       0.1       0.1       0.0
 5 N  s               0.0       5.4       0.0       2.4       1.6       0.0
 5 N  pz             24.8       0.0      22.7       0.0       0.0       5.8
 5 N  px              0.0      27.0       0.0       0.2       4.5       0.0
 5 N  py              0.0       0.2       0.0       2.9       0.7       0.0
 5 N  dz2             0.0       0.1       0.0       0.6       0.0       0.0
 5 N  dxz             0.2       0.0       0.4       0.0       0.0       0.0
 5 N  dyz             0.7       0.0       0.6       0.0       0.0       2.7
 5 N  dx2y2           0.0       1.0       0.0       0.5       0.4       0.0
 5 N  dxy             0.0       0.0       0.0       2.8       2.4       0.0
 5 N  f+2             0.0       0.0       0.0       0.0       0.0       0.2
 5 N  f-2             0.1       0.0       0.1       0.0       0.0       0.2
 5 N  f-3             0.0       0.0       0.0       0.4       0.3       0.0

                     24        25        26        27        28        29   
                   0.00728   0.10569   0.12087   0.20123   0.23598   0.25600
                   0.00000   0.00000   0.00000   0.00000   0.00000   0.00000
                  --------  --------  --------  --------  --------  --------
 0 N  s               0.0       5.3      10.7       3.4       8.9       0.0
 0 N  pz             12.9       0.0       0.0       0.0       0.0      15.5
 0 N  px              0.0       1.5       2.3       1.9       2.6       0.0
 0 N  py              0.0       1.0       0.1       0.8       1.3       0.0
 0 N  dz2             0.0       1.7       2.4       3.4       0.1       0.0
 0 N  dxz             0.2       0.0       0.0       0.0       0.0       0.0
 0 N  dx2y2           0.0       7.4       5.2       0.9       0.6       0.0
 0 N  dxy             0.0       1.2       2.6       1.0       0.0       0.0
 0 N  f0              0.4       0.0       0.0       0.0       0.0       0.2
 0 N  f+2             0.5       0.0       0.0       0.0       0.0       0.2
 0 N  f-2             0.2       0.0       0.0       0.0       0.0       0.1
 0 N  f+3             0.0       0.0       0.1       0.0       0.0       0.0
 0 N  f-3             0.0       0.1       0.1       0.2       0.0       0.0
 1 N  s               0.0       4.5       8.8       0.3       2.9       0.0
 1 N  pz             16.8       0.0       0.0       0.0       0.0      20.7
 1 N  px              0.0       7.8       1.0       4.6       4.6       0.0
 1 N  py              0.0       7.5       3.0      13.3       6.5       0.0
 1 N  dz2             0.0       1.1       0.0       0.2       2.5       0.0
 1 N  dxz             2.3       0.0       0.0       0.0       0.0       0.2
 1 N  dyz             1.0       0.0       0.0       0.0       0.0       0.0
 1 N  dx2y2           0.0       0.1       0.4       6.5       0.9       0.0
 1 N  dxy             0.0       1.0       0.1       4.4       0.3       0.0
 1 N  f0              0.2       0.0       0.0       0.0       0.0       0.1
 1 N  f-1             0.0       0.0       0.0       0.1       0.0       0.0
 1 N  f+3             0.0       0.2       0.0       0.0       0.3       0.0
 2 N  s               0.0       5.3      10.7       3.4       8.9       0.0
 2 N  pz             12.9       0.0       0.0       0.0       0.0      15.5
 2 N  px              0.0       1.5       2.3       1.9       2.6       0.0
 2 N  py              0.0       1.0       0.1       0.8       1.3       0.0
 2 N  dz2             0.0       1.7       2.4       3.4       0.1       0.0
 2 N  dxz             0.2       0.0       0.0       0.0       0.0       0.0
 2 N  dx2y2           0.0       7.4       5.2       0.9       0.6       0.0
 2 N  dxy             0.0       1.2       2.6       1.0       0.0       0.0
 2 N  f0              0.4       0.0       0.0       0.0       0.0       0.2
 2 N  f+2             0.5       0.0       0.0       0.0       0.0       0.2
 2 N  f-2             0.2       0.0       0.0       0.0       0.0       0.1
 2 N  f+3             0.0       0.0       0.1       0.0       0.0       0.0
 2 N  f-3             0.0       0.1       0.1       0.2       0.0       0.0
 3 N  s               0.0       6.9       9.7       3.3       5.8       0.0
 3 N  pz             11.8       0.0       0.0       0.0       0.0      12.9
 3 N  px              0.0       0.7       1.5       2.0       2.4       0.0
 3 N  py              0.0       1.3       1.1       1.7       5.1       0.0
 3 N  dz2             0.0       0.0       0.0       0.1       1.0       0.0
 3 N  dxz             0.1       0.0       0.0       0.0       0.0       0.0
 3 N  dyz             3.0       0.0       0.0       0.0       0.0       0.0
 3 N  dx2y2           0.0       0.1       0.2       0.3       3.6       0.0
 3 N  dxy             0.0       0.3       0.6       1.3       0.1       0.0
 3 N  f0              0.2       0.0       0.0       0.0       0.0       0.0
 3 N  f+2             0.2       0.0       0.0       0.0       0.0       0.0
 4 N  s               0.0       6.9       9.7       3.3       5.8       0.0
 4 N  pz             11.8       0.0       0.0       0.0       0.0      12.9
 4 N  px              0.0       0.7       1.5       2.0       2.4       0.0
 4 N  py              0.0       1.3       1.1       1.7       5.1       0.0
 4 N  dz2             0.0       0.0       0.0       0.1       1.0       0.0
 4 N  dxz             0.1       0.0       0.0       0.0       0.0       0.0
 4 N  dyz             3.0       0.0       0.0       0.0       0.0       0.0
 4 N  dx2y2           0.0       0.1       0.2       0.3       3.6       0.0
 4 N  dxy             0.0       0.3       0.6       1.3       0.1       0.0
 4 N  f0              0.2       0.0       0.0       0.0       0.0       0.0
 4 N  f+2             0.2       0.0       0.0       0.0       0.0       0.0
 5 N  s               0.0       4.5       8.8       0.3       2.9       0.0
 5 N  pz             16.8       0.0       0.0       0.0       0.0      20.7
 5 N  px              0.0       7.8       1.0       4.6       4.6       0.0
 5 N  py              0.0       7.5       3.0      13.3       6.5       0.0
 5 N  dz2             0.0       1.1       0.0       0.2       2.5       0.0
 5 N  dxz             2.3       0.0       0.0       0.0       0.0       0.2
 5 N  dyz             1.0       0.0       0.0       0.0       0.0       0.0
 5 N  dx2y2           0.0       0.1       0.4       6.5       0.9       0.0
 5 N  dxy             0.0       1.0       0.1       4.4       0.3       0.0
 5 N  f0              0.2       0.0       0.0       0.0       0.0       0.1
 5 N  f-1             0.0       0.0       0.0       0.1       0.0       0.0
 5 N  f+3             0.0       0.2       0.0       0.0       0.3       0.0

                     30        31        32        33        34        35   
                   0.25620   0.26622   0.27361   0.29029   0.29409   0.30904
                   0.00000   0.00000   0.00000   0.00000   0.00000   0.00000
                  --------  --------  --------  --------  --------  --------
 0 N  s               2.7       1.3       1.4       0.0       0.4       0.3
 0 N  pz              0.0       0.0       0.0      20.9       0.0       0.0
 0 N  px             11.5       8.7       1.6       0.0       0.1       0.2
 0 N  py              0.2       0.6       0.7       0.0       1.2       8.1
 0 N  dz2             0.1       0.1       0.2       0.0       0.4       1.3
 0 N  dyz             0.0       0.0       0.0       0.3       0.0       0.0
 0 N  dx2y2           0.2       0.3       0.6       0.0       0.2       0.0
 0 N  dxy             0.8       0.0       0.0       0.0       0.1       0.0
 0 N  f0              0.0       0.0       0.0       0.1       0.0       0.0
 0 N  f+2             0.0       0.0       0.0       0.2       0.0       0.0
 0 N  f+3             0.0       0.3       0.0       0.0       0.0       0.0
 0 N  f-3             0.1       0.5       0.0       0.0       0.0       0.0
 1 N  s               3.7       1.0       1.5       0.0       0.4      11.4
 1 N  pz              0.0       0.0       0.0       1.2       0.0       0.0
 1 N  px              1.2      20.0       0.9       0.0       0.1       3.4
 1 N  py              5.6       0.5       1.8       0.0       2.2       0.3
 1 N  dz2             2.8       0.5       0.2       0.0       0.0       4.9
 1 N  dyz             0.0       0.0       0.0       0.1       0.0       0.0
 1 N  dx2y2           0.6       0.2       0.0       0.0       0.9       0.0
 1 N  dxy             1.7       0.7       0.0       0.0       0.2       0.0
 1 N  f+3             0.0       0.1       0.0       0.0       0.1       0.0
 1 N  f-3             0.1       0.0       0.0       0.0       0.0       0.0
 2 N  s               2.7       1.3       1.4       0.0       0.4       0.3
 2 N  pz              0.0       0.0       0.0      20.9       0.0       0.0
 2 N  px             11.5       8.7       1.6       0.0       0.1       0.2
 2 N  py              0.2       0.6       0.7       0.0       1.2       8.1
 2 N  dz2             0.1       0.1       0.2       0.0       0.4       1.3
 2 N  dyz             0.0       0.0       0.0       0.3       0.0       0.0
 2 N  dx2y2           0.2       0.3       0.6       0.0       0.2       0.0
 2 N  dxy             0.8       0.0       0.0       0.0       0.1       0.0
 2 N  f0              0.0       0.0       0.0       0.1       0.0       0.0
 2 N  f+2             0.0       0.0       0.0       0.2       0.0       0.0
 2 N  f+3             0.0       0.3       0.0       0.0       0.0       0.0
 2 N  f-3             0.1       0.5       0.0       0.0       0.0       0.0
 3 N  s               0.4       2.4       4.3       0.0       4.7      11.7
 3 N  pz              0.0       0.0       0.0      26.7       0.0       0.0
 3 N  px             15.0      10.5       0.6       0.0       1.3       0.5
 3 N  py              0.9       1.1      32.3       0.0      36.3       3.5
 3 N  dz2             0.6       0.3       0.8       0.0       0.4       0.6
 3 N  dyz             0.0       0.0       0.0       0.2       0.0       0.0
 3 N  dx2y2           0.4       0.7       2.6       0.0       0.9       2.7
 3 N  dxy             1.2       0.0       0.2       0.0       0.1       0.8
 4 N  s               0.4       2.4       4.3       0.0       4.7      11.7
 4 N  pz              0.0       0.0       0.0      26.7       0.0       0.0
 4 N  px             15.0      10.5       0.6       0.0       1.3       0.5
 4 N  py              0.9       1.1      32.3       0.0      36.3       3.5
 4 N  dz2             0.6       0.3       0.8       0.0       0.4       0.6
 4 N  dyz             0.0       0.0       0.0       0.2       0.0       0.0
 4 N  dx2y2           0.4       0.7       2.6       0.0       0.9       2.7
 4 N  dxy             1.2       0.0       0.2       0.0       0.1       0.8
 5 N  s               3.7       1.0       1.5       0.0       0.4      11.4
 5 N  pz              0.0       0.0       0.0       1.2       0.0       0.0
 5 N  px              1.2      20.0       0.9       0.0       0.1       3.4
 5 N  py              5.6       0.5       1.8       0.0       2.2       0.3
 5 N  dz2             2.8       0.5       0.2       0.0       0.0       4.9
 5 N  dyz             0.0       0.0       0.0       0.1       0.0       0.0
 5 N  dx2y2           0.6       0.2       0.0       0.0       0.9       0.0
 5 N  dxy             1.7       0.7       0.0       0.0       0.2       0.0
 5 N  f+3             0.0       0.1       0.0       0.0       0.1       0.0
 5 N  f-3             0.1       0.0       0.0       0.0       0.0       0.0

                     36        37        38        39        40        41   
                   0.32070   0.35399   0.36832   0.37290   0.37366   0.39557
                   0.00000   0.00000   0.00000   0.00000   0.00000   0.00000
                  --------  --------  --------  --------  --------  --------
 0 N  s               3.6       0.3       0.2       0.0       0.0       1.6
 0 N  pz              0.0       0.0       0.0       0.5       2.3       0.0
 0 N  px              2.6       0.2       0.2       0.0       0.0       0.8
 0 N  py              0.4       0.7       1.6       0.0       0.0       3.4
 0 N  dz2             0.1       1.8       0.0       0.0       0.0       0.0
 0 N  dxz             0.0       0.0       0.0       0.2       1.9       0.0
 0 N  dyz             0.0       0.0       0.0       0.7       0.9       0.0
 0 N  dx2y2           2.0       0.6       0.0       0.0       0.0       0.2
 0 N  dxy             0.7       0.0       1.3       0.0       0.0       0.1
 0 N  f0              0.0       0.0       0.0       0.0       0.1       0.0
 0 N  f+3             0.3       0.0       0.0       0.0       0.0       0.1
 1 N  s               1.6       2.4       3.1       0.0       0.0       2.1
 1 N  pz              0.0       0.0       0.0      15.7      40.4       0.0
 1 N  px              3.7      33.8      13.3       0.0       0.0       3.9
 1 N  py              5.7       2.9       1.0       0.0       0.0      11.6
 1 N  dz2             4.6       0.7       0.1       0.0       0.0       2.6
 1 N  dxz             0.0       0.0       0.0       0.1       3.2       0.0
 1 N  dyz             0.0       0.0       0.0       0.1       0.5       0.0
 1 N  dx2y2           0.2       0.5       0.8       0.0       0.0       0.0
 1 N  dxy             0.5       0.0       0.0       0.0       0.0       0.5
 2 N  s               3.6       0.3       0.2       0.0       0.0       1.6
 2 N  pz              0.0       0.0       0.0       0.5       2.3       0.0
 2 N  px              2.6       0.2       0.2       0.0       0.0       0.8
 2 N  py              0.4       0.7       1.6       0.0       0.0       3.4
 2 N  dz2             0.1       1.8       0.0       0.0       0.0       0.0
 2 N  dxz             0.0       0.0       0.0       0.2       1.9       0.0
 2 N  dyz             0.0       0.0       0.0       0.7       0.9       0.0
 2 N  dx2y2           2.0       0.6       0.0       0.0       0.0       0.2
 2 N  dxy             0.7       0.0       1.3       0.0       0.0       0.1
 2 N  f0              0.0       0.0       0.0       0.0       0.1       0.0
 2 N  f+3             0.3       0.0       0.0       0.0       0.0       0.1
 3 N  s               6.1       0.5       1.5       0.0       0.0      12.1
 3 N  pz              0.0       0.0       0.0      32.2       0.2       0.0
 3 N  px             11.4       1.1      24.2       0.0       0.0       4.4
 3 N  py              4.2       4.1       1.2       0.0       0.0       2.6
 3 N  dz2             0.7       0.3       0.2       0.0       0.0       1.2
 3 N  dxz             0.0       0.0       0.0       0.0       0.2       0.0
 3 N  dyz             0.0       0.0       0.0       0.4       0.0       0.0
 3 N  dx2y2           1.0       0.1       0.1       0.0       0.0       2.0
 3 N  dxy             0.3       0.0       1.0       0.0       0.0       0.5
 4 N  s               6.1       0.5       1.5       0.0       0.0      12.1
 4 N  pz              0.0       0.0       0.0      32.2       0.2       0.0
 4 N  px             11.4       1.1      24.2       0.0       0.0       4.4
 4 N  py              4.2       4.1       1.2       0.0       0.0       2.6
 4 N  dz2             0.7       0.3       0.2       0.0       0.0       1.2
 4 N  dxz             0.0       0.0       0.0       0.0       0.2       0.0
[...]
x,y,z [a.u.] :     0.000000     0.000001     0.000002 
x,y,z [Debye]:     0.000001     0.000001     0.000006 

 

Dipole moment calculation done in   0.0 sec 

-----------
SCF HESSIAN
-----------

Occupied/Occupied contributions to the Hessian:
   => Occupied/Occupied contributions              ... done (  0.0 sec)
Perturbed density contributions to the Hessian:
   => Perturbed density contributions              ... done (  0.0 sec)
Explicit contributions to the Hessian:
   => Nuclear repulsion Hessian                    ... done (  0.0 sec)
   => HCore and overlap Hessian                    ... done (  0.4 sec)
   => RI-J Hessian                                 ... done (  1.5 sec)
   => COSX Hessian                                 ... done ( 67.8 sec)
   => XC-Hessian                                   ... done (  3.8 sec)
   => Explicit contributions done
Dipole derivatives                                 ... done (  0.0 sec)
Mass weighting the Hessian           ... done
Calculating normal modes             ... done
Scaling frequencies                  ... done

-----------------------
VIBRATIONAL FREQUENCIES
-----------------------

Scaling factor for frequencies =  1.000000000  (already applied!)

     0:       0.00 cm**-1
     1:       0.00 cm**-1
     2:       0.00 cm**-1
     3:       0.00 cm**-1
     4:       0.00 cm**-1
     5:       0.00 cm**-1
     6:      63.99 cm**-1
     7:     168.93 cm**-1
     8:     294.30 cm**-1
     9:     509.81 cm**-1
    10:     544.43 cm**-1
    11:     610.31 cm**-1
    12:     664.73 cm**-1
    13:     892.49 cm**-1
    14:    1250.13 cm**-1
    15:    1304.54 cm**-1
    16:    2189.15 cm**-1
    17:    2247.04 cm**-1


------------
NORMAL MODES
------------

These modes are the Cartesian displacements weighted by the diagonal matrix
M(i,i)=1/sqrt(m[i]) where m[i] is the mass of the displaced atom
Thus, these vectors are normalized but *not* orthogonal

                  0          1          2          3          4          5    
      0       0.000000   0.000000   0.000000   0.000000   0.000000   0.000000
      1       0.000000   0.000000   0.000000   0.000000   0.000000   0.000000
      2       0.000000   0.000000   0.000000   0.000000   0.000000   0.000000
      3       0.000000   0.000000   0.000000   0.000000   0.000000   0.000000
      4       0.000000   0.000000   0.000000   0.000000   0.000000   0.000000
      5       0.000000   0.000000   0.000000   0.000000   0.000000   0.000000
      6       0.000000   0.000000   0.000000   0.000000   0.000000   0.000000
      7       0.000000   0.000000   0.000000   0.000000   0.000000   0.000000
      8       0.000000   0.000000   0.000000   0.000000   0.000000   0.000000
      9       0.000000   0.000000   0.000000   0.000000   0.000000   0.000000
     10       0.000000   0.000000   0.000000   0.000000   0.000000   0.000000
     11       0.000000   0.000000   0.000000   0.000000   0.000000   0.000000
     12       0.000000   0.000000   0.000000   0.000000   0.000000   0.000000
     13       0.000000   0.000000   0.000000   0.000000   0.000000   0.000000
     14       0.000000   0.000000   0.000000   0.000000   0.000000   0.000000
     15       0.000000   0.000000   0.000000   0.000000   0.000000   0.000000
     16       0.000000   0.000000   0.000000   0.000000   0.000000   0.000000
     17       0.000000   0.000000   0.000000   0.000000   0.000000   0.000000
                  6          7          8          9         10         11    
      0      -0.000001   0.110902  -0.355851  -0.000003  -0.000010  -0.382225
      1      -0.000004  -0.016982  -0.203617  -0.000008  -0.000001   0.386480
      2      -0.040363  -0.000006   0.000003  -0.575759  -0.596399   0.000004
      3      -0.000002   0.418903   0.251365  -0.000002   0.000005   0.156657
      4      -0.000002  -0.116194   0.220130   0.000000  -0.000000  -0.203187
      5       0.518945   0.000024  -0.000005   0.253089  -0.204110   0.000007
      6       0.000000   0.110926   0.355842   0.000001  -0.000000   0.382219
      7       0.000005  -0.016968   0.203618   0.000008  -0.000010  -0.386479
      8      -0.040333   0.000005   0.000001  -0.576118   0.596055  -0.000009
      9       0.000002  -0.529800   0.291930   0.000002   0.000006   0.209571
     10      -0.000010   0.133163  -0.367500   0.000001   0.000007   0.307888
     11      -0.478596   0.000004   0.000003   0.322815   0.320775  -0.000006
     12       0.000003  -0.529819  -0.291894  -0.000000  -0.000000  -0.209571
     13       0.000010   0.133190   0.367492  -0.000002   0.000001  -0.307888
     14      -0.478611  -0.000007   0.000004   0.323008  -0.320557   0.000001
     15      -0.000002   0.418888  -0.251393   0.000002   0.000001  -0.156651
     16       0.000002  -0.116209  -0.220123   0.000001   0.000004   0.203187
     17       0.518958  -0.000019  -0.000005   0.252965   0.204236   0.000003
                 12         13         14         15         16         17    
      0      -0.554743  -0.272581   0.039748   0.122787   0.108214  -0.116882
      1       0.114048   0.039556   0.170905   0.106613   0.539289  -0.543624
      2       0.000004   0.000002  -0.000002  -0.000001  -0.000006   0.000006
      3       0.370085  -0.625727  -0.143199   0.102489  -0.019701  -0.013145
      4      -0.086044   0.157295  -0.545551   0.600336  -0.121620  -0.103614
      5       0.000006  -0.000001  -0.000006   0.000006  -0.000001  -0.000001
      6      -0.554746   0.272585   0.039744  -0.122789   0.108214   0.116883
      7       0.114052  -0.039558   0.170900  -0.106618   0.539285   0.543627
      8      -0.000002   0.000002   0.000001  -0.000001   0.000006   0.000006
      9       0.184655   0.085357   0.103455   0.075192  -0.088513   0.089675
     10      -0.028006  -0.023971   0.374662   0.311450  -0.417668   0.414558
     11      -0.000001  -0.000001  -0.000004  -0.000004   0.000005  -0.000005
     12       0.184657  -0.085356   0.103454  -0.075195  -0.088514  -0.089677
     13      -0.028003   0.023972   0.374652  -0.311460  -0.417665  -0.414561
     14       0.000001  -0.000001   0.000006  -0.000004  -0.000005  -0.000005
     15       0.370092   0.625723  -0.143203  -0.102484  -0.019701   0.013145
     16      -0.086046  -0.157295  -0.545568  -0.600321  -0.121621   0.103613
     17      -0.000007  -0.000001   0.000005   0.000006   0.000001  -0.000001


-----------
IR SPECTRUM
-----------

 Mode   freq       eps      Int      T**2         TX        TY        TZ
       cm**-1   L/(mol*cm) km/mol    a.u.
----------------------------------------------------------------------------
  6:     63.99   0.000036    0.18  0.000176  (-0.000002 -0.000007 -0.013281)
  7:    168.93   0.000571    2.89  0.001055  ( 0.019439 -0.026018 -0.000000)
  8:    294.30   0.000000    0.00  0.000000  (-0.000001  0.000001  0.000000)
  9:    509.81   0.002300   11.62  0.001408  (-0.000001 -0.000002 -0.037520)
 10:    544.43   0.000000    0.00  0.000000  ( 0.000001  0.000001 -0.000012)
 11:    610.31   0.000000    0.00  0.000000  (-0.000000 -0.000000 -0.000001)
 12:    664.73   0.008352   42.21  0.003921  (-0.015045 -0.060783  0.000000)
 13:    892.49   0.000000    0.00  0.000000  ( 0.000000  0.000000  0.000000)
 14:   1250.13   0.023972  121.14  0.005984  ( 0.020746  0.074522 -0.000000)
 15:   1304.54   0.000000    0.00  0.000000  (-0.000000 -0.000001 -0.000000)
 16:   2189.15   0.260012  1313.99  0.037065  ( 0.035482  0.189224  0.000000)
 17:   2247.04   0.000000    0.00  0.000000  ( 0.000000  0.000001  0.000001)

* The epsilon (eps) is given for a Dirac delta lineshape.
** The dipole moment derivative (T) already includes vibrational overlap.

The first frequency considered to be a vibration is 6
The total number of vibrations considered is 12


--------------------------
THERMOCHEMISTRY AT 298.15K
--------------------------

Temperature         ...   298.15 K
Pressure            ...     1.00 atm
Total Mass          ...    84.04 AMU
Quasi RRHO          ...     True
Cut-Off Frequency   ...     1.00 cm^-1

Throughout the following assumptions are being made:
  (1) The electronic state is orbitally nondegenerate
  (2) There are no thermally accessible electronically excited states
  (3) Hindered rotations indicated by low frequency modes are not
      treated as such but are treated as vibrations and this may
      cause some error
  (4) All equations used are the standard statistical mechanics
      equations for an ideal gas
  (5) All vibrations are strictly harmonic

freq.      63.99  E(vib)   ...       0.51 
freq.     168.93  E(vib)   ...       0.38 
freq.     294.30  E(vib)   ...       0.27 
freq.     509.81  E(vib)   ...       0.14 
freq.     544.43  E(vib)   ...       0.12 
freq.     610.31  E(vib)   ...       0.10 
freq.     664.73  E(vib)   ...       0.08 
freq.     892.49  E(vib)   ...       0.03 
freq.    1250.13  E(vib)   ...       0.01 
freq.    1304.54  E(vib)   ...       0.01 
freq.    2189.15  E(vib)   ...       0.00 
freq.    2247.04  E(vib)   ...       0.00 

------------
INNER ENERGY
------------

The inner energy is: U= E(el) + E(ZPE) + E(vib) + E(rot) + E(trans)
    E(el)   - is the total energy from the electronic structure calculation
              = E(kin-el) + E(nuc-el) + E(el-el) + E(nuc-nuc)
    E(ZPE)  - the the zero temperature vibrational energy from the frequency calculation
    E(vib)  - the the finite temperature correction to E(ZPE) due to population
              of excited vibrational states
    E(rot)  - is the rotational thermal energy
    E(trans)- is the translational thermal energy

Summary of contributions to the inner energy U:
Electronic energy                ...   -328.30506702 Eh
Zero point energy                ...      0.02446720 Eh      15.35 kcal/mol
Thermal vibrational correction   ...      0.00261734 Eh       1.64 kcal/mol
Thermal rotational correction    ...      0.00141627 Eh       0.89 kcal/mol
Thermal translational correction ...      0.00141627 Eh       0.89 kcal/mol
-----------------------------------------------------------------------
Total thermal energy                   -328.27514994 Eh


Summary of corrections to the electronic energy:
(perhaps to be used in another calculation)
Total thermal correction                  0.00544988 Eh       3.42 kcal/mol
Non-thermal (ZPE) correction              0.02446720 Eh      15.35 kcal/mol
-----------------------------------------------------------------------
Total correction                          0.02991708 Eh      18.77 kcal/mol


--------
ENTHALPY
--------

The enthalpy is H = U + kB*T
                kB is Boltzmann's constant
Total thermal energy              ...   -328.27514994 Eh 
Thermal Enthalpy correction       ...      0.00094421 Eh       0.59 kcal/mol
-----------------------------------------------------------------------
Total Enthalpy                    ...   -328.27420573 Eh


Note: Rotational entropy computed according to Herzberg 
Infrared and Raman Spectra, Chapter V,1, Van Nostrand Reinhold, 1945 
Point Group:  C2h, Symmetry Number:   2  
Rotational constants in cm-1:     1.801892     0.058591     0.056746 

Vibrational entropy computed according to the QRRHO of S. Grimme
Chem.Eur.J. 2012 18 9955 using a reference frequency of 100.0 cm-1


-------
ENTROPY
-------

The entropy contributions are T*S = T*(S(el)+S(vib)+S(rot)+S(trans))
     S(el)   - electronic entropy
     S(vib)  - vibrational entropy
     S(rot)  - rotational entropy
     S(trans)- translational entropy
The entropies will be listed as multiplied by the temperature to get
units of energy

Electronic entropy                ...      0.00000000 Eh      0.00 kcal/mol
Vibrational entropy               ...      0.00452089 Eh      2.84 kcal/mol
Rotational entropy                ...      0.01127228 Eh      7.07 kcal/mol
Translational entropy             ...      0.01862502 Eh     11.69 kcal/mol
-----------------------------------------------------------------------
Final entropy term                ...      0.03441819 Eh     21.60 kcal/mol

In case the symmetry of your molecule has not been determined correctly
or in case you have a reason to use a different symmetry number we print 
out the resulting rotational entropy values for sn=1,12:

 non-linear molecules -----------------------------------
|  sn= 1 | S(rot)=       0.01192674 Eh      7.48 kcal/mol|
|  sn= 2 | S(rot)=       0.01127228 Eh      7.07 kcal/mol|
|  sn= 3 | S(rot)=       0.01088945 Eh      6.83 kcal/mol|
|  sn= 4 | S(rot)=       0.01061782 Eh      6.66 kcal/mol|
|  sn= 5 | S(rot)=       0.01040714 Eh      6.53 kcal/mol|
|  sn= 6 | S(rot)=       0.01023499 Eh      6.42 kcal/mol|
|  sn= 7 | S(rot)=       0.01008945 Eh      6.33 kcal/mol|
|  sn= 8 | S(rot)=       0.00996337 Eh      6.25 kcal/mol|
|  sn= 9 | S(rot)=       0.00985216 Eh      6.18 kcal/mol|
|  sn=10 | S(rot)=       0.00975268 Eh      6.12 kcal/mol|
|  sn=11 | S(rot)=       0.00966269 Eh      6.06 kcal/mol|
|  sn=12 | S(rot)=       0.00958054 Eh      6.01 kcal/mol|
 linear molecules ---------------------------------------
|  Dinfh | S(rot)=       0.00803482 Eh      5.04 kcal/mol|
|  Cinfv | S(rot)=       0.00868928 Eh      5.45 kcal/mol|
 --------------------------------------------------------


-------------------
GIBBS FREE ENERGY
-------------------

The Gibbs free energy is G = H - T*S

Total enthalpy                    ...   -328.27420573 Eh 
Total entropy correction          ...     -0.03441819 Eh    -21.60 kcal/mol
-----------------------------------------------------------------------
Final Gibbs free energy         ...   -328.30862393 Eh

For completeness - the Gibbs free energy minus the electronic energy
G-E(el)                           ...     -0.00355690 Eh     -2.23 kcal/mol


Maximum memory used throughout the entire PROP-calculation: 29.6 MB

--------------------------------
SUGGESTED CITATIONS FOR THIS RUN
--------------------------------

Below you find a list of papers that are relevant to this ORCA run
We neither can nor want to force you to cite these papers, but we appreciate if you do
You receive ORCA, which is the product of decades of hard work by many enthusiastic individuals, for free
The only thing we kindly ask in return is that you cite our papers,
We deeply appreciate it, if you show your appreciation for ORCA by not just citing the generic ORCA reference.

Please note that relegating all ORCA citations to the supporting information does *not* help us.
SI sections are not indexed - citations you put there will not count into any citation statistics
But we need these citations in order to attract the funding resources that allow us to do what we are doing

Therefore, if you are a happy ORCA user, please consider citing a few of the papers listed below in the main body of your paper

In addition to the list printed below, the program has created the file orca.bibtex that contains the list in bibtex format
You can import this file easily into all common literature databanks and citation aid programs

It goes without saying that in many instances, there are alternative algorithms to achieve similar
results as the ones you have gotten from ORCA. It is, of course, also the case that in some instances
ORCA just re-implements algorithms worked out by others. We are fully aware of that and we are also
fully appreciative of our colleagues work. Hence this citation list should not be read as indicating
that the listed papers, which are focused on our own work, are the only ones worth citing. It simply
meant to make it easier for users to cite ORCA specific papers. It is not a substitute for doing your
own literature research and citing the relevant literature in a scientifically appropriate manner.

List of essential papers. We consider these as the minimum necessary citations

  1. Neese, F.
     Software update: the ORCA program system, version 6.0
     WIRES Comput. Molec. Sci. 2025 15(1), e70019
     doi.org/10.1002/wcms.70019

List of papers to cite with high priority. The work reported in these papers was absolutely
necessary for this run to complete.
Our perspective: the developers of density functionals and basis sets usually get cited in chemistry papers
Good! But without the algorithms to do something with them, the functionals or basis sets would not do anything.
Hence, in our opinion, the algorithm design and method developments papers are equally worthy of getting cited

  1. Neese, F.
     An improvement of the resolution of the identity approximation for the formation of the Coulomb matrix
     J. Comp. Chem. 2003 24(14), 1740-1747
     doi.org/10.1002/jcc.10318
  2. Neese, F.; Wennmohs, F.; Hansen, A.; Becker, U.
     Efficient, approximate and parallel Hartree-Fock and hybrid DFT calculations. A 'chain-of-spheres' algorithm for the Hartree-Fock exchange
     Chem. Phys. 2009 356(1-3), 98-109
     doi.org/10.1016/j.chemphys.2008.10.036
  3. Bykov, D.; Petrenko, T.; Izsak, R.; Kossmann, S.; Becker, U.; Valeev, E.; Neese, F.
     Efficient implementation of the analytic second derivatives of Hartree-Fock and hybrid DFT energies: a detailed analysis of different approximations
     Molec. Phys. 2015 113 , 1961-1977
     doi.org/10.1080/00268976.2015.1025114
  4. Helmich-Paris, B.; de Souza, B.; Neese, F.; Izsák, R.
     An improved chain of spheres for exchange algorithm
     J. Chem. Phys. 2021 155(10), 104109
     doi.org/10.1063/5.0058766
  5. Neese, F.
     The SHARK Integral Generation and Digestion System
     J. Comp. Chem. 2022 44(3), 381
     doi.org/10.1002/jcc.26942

List of suggested additional citations. These are papers that are important in the 'surrounding' of 
of this run, or papers that preceded the highly important papers. If you like your results we are grateful for a citation.

  1. Izsak, R.; Neese, F.
     An overlap fitted chain of spheres exchange method
     J. Chem. Phys. 2011 135 , 144105
     doi.org/10.1063/1.3646921
  2. Izsak, R.; Hansen, A.; Neese, F.
     The resolution of identity and chain of spheres approximations for the LPNO-CCSD singles Fock term
     Molec. Phys. 2012 110 , 2413-2417
     doi.org/10.1080/00268976.2012.687466
  3. Neese, F.
     The ORCA program system
     WIRES Comput. Molec. Sci. 2012 2(1), 73-78
     doi.org/10.1002/wcms.81
  4. Izsak, R.; Neese, F.; Klopper, W.
     Robust fitting techniques in the chain of spheres approximation to the Fock exchange: The role of the complementary space
     J. Chem. Phys. 2013 139 , 
     doi.org/10.1063/1.4819264
  5. Neese, F.
     Software update: the ORCA program system, version 4.0
     WIRES Comput. Molec. Sci. 2018 8(1), 1-6
     doi.org/10.1002/wcms.1327
  6. Neese, F.; Wennmohs, F.; Becker, U.; Riplinger, C.
     The ORCA quantum chemistry program package
     J. Chem. Phys. 2020 152(22), 224108
     doi.org/10.1063/5.0004608
  7. Neese, F.
     Software update: The ORCA program system—Version 5.0
     WIRES Comput. Molec. Sci. 2022 12(1), e1606
     doi.org/10.1002/wcms.1606

List of optional additional citations

  1. Neese, F.
     Approximate second-order SCF convergence for spin unrestricted wavefunctions
     Chem. Phys. Lett. 2000 325(1-3), 93-98
     doi.org/10.1016/s0009-2614(00)00662-x

Timings for individual modules:

Sum of individual times          ...      123.289 sec (=   2.055 min)
Startup calculation              ...        1.669 sec (=   0.028 min)   1.4 %
SCF iterations                   ...       17.343 sec (=   0.289 min)  14.1 %
Property integrals               ...       13.823 sec (=   0.230 min)  11.2 %
SCF Response                     ...       10.390 sec (=   0.173 min)   8.4 %
Property calculations            ...       73.885 sec (=   1.231 min)  59.9 %
SCF Gradient evaluation          ...        6.173 sec (=   0.103 min)   5.0 %
Geometry relaxation              ...        0.007 sec (=   0.000 min)   0.0 %
                             ****ORCA TERMINATED NORMALLY****
TOTAL RUN TIME: 0 days 0 hours 2 minutes 4 seconds 0 msec
