
                                 *****************
                                 * O   R   C   A *
                                 *****************

                                            #,                                       
                                            ###                                      
                                            ####                                     
                                            #####                                    
                                            ######                                   
                                           ########,                                 
                                     ,,################,,,,,                         
                               ,,#################################,,                 
                          ,,##########################################,,             
                       ,#########################################, ''#####,          
                    ,#############################################,,   '####,        
                  ,##################################################,,,,####,       
                ,###########''''           ''''###############################       
              ,#####''   ,,,,##########,,,,          '''####'''          '####       
            ,##' ,,,,###########################,,,                        '##       
           ' ,,###''''                  '''############,,,                           
         ,,##''                                '''############,,,,        ,,,,,,###''
      ,#''                                            '''#######################'''  
     '                                                          ''''####''''         
             ,#######,   #######,   ,#######,      ##                                
            ,#'     '#,  ##    ##  ,#'     '#,    #''#        ,####,    ,#,          
            ##       ##  ##   ,#'  ##            #'  '#       #'       ,# #          
            ##       ##  #######   ##           ,######,      #####,      #          
            '#,     ,#'  ##    ##  '#,     ,#' ,#      #,     #,   #      #          
             '#######'   ##     ##  '#######'  #'      '#     '####' #    #          



                #########################################################
                #                        -***-                          #
                #          Department of theory and spectroscopy        #
                #                                                       #
                #                      Frank Neese                      #
                #                                                       #
                #     Directorship, Architecture, Infrastructure        #
                #                    SHARK, DRIVERS                     #
                #        Core code/Algorithms in most modules           #
                #                                                       #
                #        Max Planck Institute fuer Kohlenforschung      #
                #                Kaiser Wilhelm Platz 1                 #
                #                 D-45470 Muelheim/Ruhr                 #
                #                      Germany                          #
                #                                                       #
                #                  All rights reserved                  #
                #                        -***-                          #
                #########################################################


                         Program Version 6.1.1  -  RELEASE   -
                                (GIT: $487d211c$)
                          ($2025-11-21 10:33:24 +0100$)
                                                                         
                                  - NO-DMRG VERSION -                    
                                                                         


 With contributions from (in alphabetic order):
[Max-Planck-Institut fuer Kohlenforschung]                               
  Daniel Aravena         : Magnetic Suceptibility                        
  Michael Atanasov       : Ab Initio Ligand Field Theory (pilot matlab implementation)
  Alexander A. Auer      : GIAO ZORA, VPT2 properties, NMR spectrum      
  Ute Becker             : All parallelization in ORCA, NUMFREQ, NUMCALC 
  Giovanni Bistoni       : ED, misc. LED, open-shell LED, HFLD           
  Dmytro Bykov           : pre 5.0 version of the SCF Hessian            
  Marcos Casanova-Páez   : Triplet and SCS-CIS(D). UHF-(DLPNO)-IP/EA/STEOM-CCSD. UHF-CVS-IP/STEOM-CCSD   
  Vijay G. Chilkuri      : MRCI spin determinant printing, contributions to CSF-ICE 
  Pauline Colinet        : FMM embedding                                 
  Dipayan Datta          : RHF DLPNO-CCSD density                        
  Achintya Kumar Dutta   : EOM-CC, STEOM-CC                              
  Nicolas Foglia         : Exact transition moments, OPA infrastructure, MCD improvements    
  Dmitry Ganyushin       : Spin-Orbit,Spin-Spin,Magnetic field MRCI      
  Miquel Garcia-Rates    : C-PCM and meta-GGA Hessian, CCSD/C-PCM, Gaussian charge scheme 
  Tiago L. C. Gouveia    : GS-ROHF, GS-ROCIS                             
  Yang Guo               : DLPNO-NEVPT2, F12-NEVPT2, CIM, IAO-localization        
  Andreas Hansen         : Spin unrestricted coupled pair/coupled cluster methods 
  Ingolf Harden          : AUTO-CI MPn and infrastructure                
  Benjamin Helmich-Paris : MC-RPA, TRAH-(SCF,CASSCF), AVAS, COSX integrals, SCF dyn. polar., MC-PDFT, srDFT 
  Lee Huntington         : MR-EOM, pCC                                   
  Robert Izsak           : Overlap fitted RIJCOSX, COSX-SCS-MP3, EOM     
  Riya Kayal             : Wick's Theorem for AUTO-CI, AUTO-CI UHF-CCSDT 
  Emily Kempfer          : AUTO-CI RHF CISDT and CCSDT, approximate NEVPT4
  Christian Kollmar      : KDIIS, OOCD, Brueckner-CCSD(T), CCSD density, CASPT2, CASPT2-K, improved NEVPT2 
  Axel Koslowski         : Symmetry handling                             
  Simone Kossmann        : meta-GGA functionals, TD-DFT gradient, OOMP2, (MP2 Hessian; deprecated post 5.0) 
  Lucas Lang             : DCDCAS, Hyperfine gauge corrections, ICE-SOC+SSC
  Marvin Lechner         : AUTO-CI (C++ implementation), FIC-MRCC        
  Spencer Leger          : CASSCF response                               
  Dagmar Lenk            : GEPOL surface, SMD, ORCA-2-JSON               
  Dimitrios Liakos       : Extrapolation schemes; Compound Job, Property file
  Dimitrios Manganas     : Further ROCIS development; embedding schemes. LFT, Crystal Embedding 
  Dimitrios Pantazis     : SARC Basis sets                               
  Anastasios Papadopoulos: AUTO-CI, single reference methods and gradients 
  Taras Petrenko         : pre 6.0 DFT Hessian and TD-DFT gradient,  ECA, NRVS 
  Petra Pikulova         : Analytic Raman intensities                    
  Peter Pinski           : DLPNO-MP2, DLPNO-MP2 Gradient                 
  Shashank Vittal Rao    : ES-AILFT, MagRelax                            
  Christoph Reimann      : Effective Core Potentials                     
  Marius Retegan         : Local ZFS, SOC                                
  Christoph Riplinger    : Optimizer, TS searches, QM/MM, DLPNO-CCSD(T), (RO)-DLPNO pert. Triples 
  Michael Roemelt        : Original ROCIS implementation, recursive CI coupling coefficients
  Masaaki Saitow         : Open-shell DLPNO-CCSD energy and density      
  Barbara Sandhoefer     : DKH picture change effects                    
  Yorick L. A. Schmerwitz: GMF and freeze-and-release deltaSCF, NEB S-IDPP initial path                    
  Kantharuban Sivalingam : CASSCF convergence/infrastructure, NEVPT2, NEVPT3, NEVPT4(SD), FIC-MRCI and CEPA variants
  Bernardo de Souza      : ESD, SOC TD-DFT                               
  Georgi L. Stoychev     : AutoAux, RI-MP2 NMR, DLPNO-MP2 response, X2C  
  Van Anh Tran           : RI-MP2 g-tensors                              
  Willem Van den Heuvel  : Paramagnetic NMR                              
  Zikuan Wang            : NOTCH, Electric field optimization            
  Frank Wennmohs         : Technical directorship and infrastructure     
  Hang Xu                : AUTO-CI-Response properties                   
                                                                         
[FACCTs GmbH]                                                            
  Markus Bursch, Nicolas Foglia, Miquel Garcia-Rates, Ingolf Harden, Hagen Neugebauer, Anastasios Papadopoulos, 
  Christoph Riplinger, Bernardo de Souza, Georgi L. Stoychev                                                    
                                                                 
  APM, various basis sets, CI-OPT, improved COSX, DLPNO-Multilevel,           
  DOCKER, DRACO, updates on ESD, Fragmentator, GOAT, IRC, LR-CPCM, L-BFGS, MBIS, meta-GGA TD-DFT gradient, ML-optimized integration grids, 
  MM, NACMEs, nearIR, NEB, NEB-TS, NL-DFT gradient (VV10), 2- and 3-layer-ONIOM, interface openCOSMO-RS, QMMM,   
  Crystal-QMMM, RESP, rigid body optimization, SF, symmetry and pop. for TD-DFT, various functionals, SOLVATOR                                   
                                                                         
[Other institutions]                                                     
  V. Asgeirsson          : NEB                                           
  Christoph Bannwarth    : sTDA-DFT, sTD-DFT, PBEh-3c, B97-3c, D3        
  Giovanni Bistoni       : ETS/NOCV, ADLD/ADEX, COVALED                  
  Martin Brehm           : Molecular dynamics                            
  Ronald Cardenas        : ETS/NOCV                                      
  Martina Colucci        : COVALED                                       
  Sebastian Ehlert       : rSCAN, r2SCAN, r2SCAN-3c, D4, dhf basis sets  
  Marvin Friede          : D4 for Fr, Ra, Ac-Lr                          
  Lars Goerigk           : TD-DFT with DH, B97 family of functionals     
  Stefan Grimme          : VdW corrections, initial TS optimization, DFT functionals, gCP, sTDA/sTD-DF 
  Waldemar Hujo          : DFT-NL                                        
  H. Jonsson             : NEB                                           
  Holger Kruse           : gCP                                           
  Marcel Mueller         : wB97X-3c, vDZP basis set                      
  Hagen Neugebauer       : wr2SCAN, Native XTB                           
  Gianluca Regni         : ADLD/ADEX                                     
  Tobias Risthaus        : pre 6.0 range-separated hybrid DFT and stability analysis
  Lukas Wittmann         : regularized MP2, r2SCAN double-hybrids, wr2SCAN        
                                                                         
We gratefully acknowledge several colleagues who have allowed us to      
interface, adapt or use parts of their codes:                            
  Ed Valeev, F. Pavosevic, A. Kumar             : LibInt (2-el integral package), F12 methods 
  Garnet Chan, S. Sharma, J. Yang, R. Olivares  : DMRG                   
  Ulf Ekstrom                                   : XCFun DFT Library      
  Mihaly Kallay                                 : mrcc  (arbitrary order and MRCC methods)
  Frank Weinhold                                : gennbo (NPA and NBO analysis)           
  Simon Mueller                                 : openCOSMO-RS                            
  Christopher J. Cramer and Donald G. Truhlar   : smd solvation model                     
  S Lehtola, MJT Oliveira, MAL Marques          : LibXC Library                           
  Liviu Ungur et al                             : ANISO software                          


 Your calculation uses the libint2 library for the computation of 2-el integrals
 For citations please refer to: http://libint.valeyev.net

 Your ORCA version has been built with support for libXC version: 7.0.0
 For citations please refer to: https://libxc.gitlab.io

 This ORCA versions uses:
   CBLAS   interface :  Fast vector & matrix operations
   LAPACKE interface :  Fast linear algebra routines
   SCALAPACK package :  Parallel linear algebra routines
   Shared memory     :  Shared parallel matrices
   BLAS/LAPACK       :  OpenBLAS 0.3.29  USE64BITINT DYNAMIC_ARCH NO_AFFINITY SkylakeX SINGLE_THREADED
        Core in use  :  SkylakeX
   Copyright (c) 2011-2014, The OpenBLAS Project


  ***********************************
  * Starting time: Sat Feb 28 14:53:32 2026
  * Host name:     adroit-h11n3
  * Process ID:    1625375
  * Working dir.:  /scratch/network/kp0374/CBE423/2/problem_2
  ***********************************

Warning: RI is on but no J-basis has been assigned. Assigning Def2/J (nothing to worry about!)
================================================================================

----- Orbital basis set information -----
Your calculation utilizes the basis: def2-TZVP
   F. Weigend and R. Ahlrichs, Phys. Chem. Chem. Phys. 7, 3297 (2005).

----- AuxJ basis set information -----
Your calculation utilizes the auxiliary basis: def2/J
   H-Rn: F. Weigend, Phys. Chem. Chem. Phys. 8, 1057 (2006).
   Fr-Lr: K. Eichkorn, F. Weigend, O. Treutler, R. Ahlrichs; Theor. Chem. Acc. 97, 119 (1997).

================================================================================
                                        WARNINGS
                       Please study these warnings very carefully!
================================================================================

WARNING: Old DensityContainer found on disk!
         Will remove this file - 
         If you want to keep old densities, please start your calculation with a different basename. 


WARNING: Geometry Optimization
  ===> : Switching off AutoStart
         For restart on a previous wavefunction, please use MOREAD

================================================================================
                                       INPUT FILE
================================================================================
NAME = orca.inp
|  1> # The first line is called the simple input and is where
|  2> # you can put many of the ORCA input arguments
|  3> ! B3LYP def2-TZVP OptTS Freq NormalPrint xyzfile 
|  4> 
|  5> # calculate initial Hessian
|  6> %geom 
|  7>   Calc_Hess true 
|  8> end
|  9> 
| 10> # This line tells ORCA to parallelize over 4 CPU cores
| 11> %pal nprocs 4 end 
| 12> 
| 13> # Here we specify the charge, spin, and coordinates
| 14> # Example coordinates are shown for an H2 molecule
| 15> *xyz 0 1
| 16> N  -1.65648200   -0.18493100    0.04565900 
| 17> N 0.50636600    0.53652100    0.40348600 
| 18> N 1.65642700   -0.18484500   -0.04558600 
| 19> N -2.75997100   -0.35164900    0.04658100 
| 20> N 2.75990400   -0.35171800   -0.04668600 
| 21> N -0.50624400    0.53662100   -0.40345400 
| 22> *
| 23> 
| 24>                          ****END OF INPUT****
================================================================================

                       *****************************
                       * Geometry Optimization Run *
                       *****************************

Geometry optimization settings:
Update method            Update   .... Bofill
Choice of coordinates    CoordSys .... (2022) Redundant Internals
Initial Hessian          InHess   .... Almloef's Model
Max. no of cycles        MaxIter  .... 50

Convergence Tolerances:
Energy Change            TolE     ....  5.0000e-06 Eh
Max. Gradient            TolMAXG  ....  3.0000e-04 Eh/bohr
RMS Gradient             TolRMSG  ....  1.0000e-04 Eh/bohr
Max. Displacement        TolMAXD  ....  4.0000e-03 bohr
RMS Displacement         TolRMSD  ....  2.0000e-03 bohr
Strict Convergence                .... False

------------------------------------------------------------------------------
                        ORCA OPTIMIZATION COORDINATE SETUP
------------------------------------------------------------------------------

The optimization will be done in redundant internal coordinates (2022)
Making redundant internal coordinates   ...  (2022 redundants) done
Following TS mode number                ...     0
Evaluating the initial hessian          ...  (Is done on the fly) done
Evaluating the coordinates              ...  done
Calculating the B-matrix                .... done
Calculating the G-matrix                .... done
The number of degrees of freedom        ....   12

    -----------------------------------------------------------------
                    Redundant Internal Coordinates


    -----------------------------------------------------------------
         Definition                    Initial Value    d2E/dq (diagonal element)
    -----------------------------------------------------------------
      1. B(N   2,N   1)                  1.4299         0.000000   
      2. B(N   3,N   0)                  1.1160         0.000000   
      3. B(N   4,N   2)                  1.1160         0.000000   
      4. B(N   5,N   1)                  1.2948         0.000000   
      5. B(N   5,N   0)                  1.4302         0.000000   
      6. A(N   3,N   0,N   5)          150.5599         0.000000   
      7. A(N   2,N   1,N   5)          115.6778         0.000000   
      8. A(N   1,N   2,N   4)          150.5730         0.000000   
      9. A(N   0,N   5,N   1)          115.6730         0.000000   
     10. D(N   4,N   2,N   1,N   5)    153.2061         0.000000   
     11. D(N   0,N   5,N   1,N   2)    111.9201         0.000000   
     12. D(N   1,N   5,N   0,N   3)    153.2148         0.000000   
    -----------------------------------------------------------------

Number of atoms                         .... 6
Number of degrees of freedom            .... 12


         *************************************************************
         *                GEOMETRY OPTIMIZATION CYCLE   1            *
         *************************************************************
---------------------------------
CARTESIAN COORDINATES (ANGSTROEM)
---------------------------------
  N     -1.656482   -0.184931    0.045659
  N      0.506366    0.536521    0.403486
  N      1.656427   -0.184845   -0.045586
  N     -2.759971   -0.351649    0.046581
  N      2.759904   -0.351718   -0.046686
  N     -0.506244    0.536621   -0.403454

----------------------------
CARTESIAN COORDINATES (A.U.)
----------------------------
  NO LB      ZA    FRAG     MASS         X           Y           Z
   0 N     7.0000    0    14.007   -3.130297   -0.349469    0.086283
   1 N     7.0000    0    14.007    0.956893    1.013878    0.762478
   2 N     7.0000    0    14.007    3.130193   -0.349306   -0.086145
   3 N     7.0000    0    14.007   -5.215589   -0.664520    0.088025
   4 N     7.0000    0    14.007    5.215463   -0.664651   -0.088224
   5 N     7.0000    0    14.007   -0.956663    1.014067   -0.762418

--------------------------------
INTERNAL COORDINATES (ANGSTROEM)
--------------------------------
 N      0   0   0     0.000000000000     0.00000000     0.00000000
 N      1   0   0     2.307909144949     0.00000000     0.00000000
 N      2   1   0     1.429921281351   123.18458843     0.00000000
 N      1   2   3     1.116012416924   166.70530093   166.94878714
 N      3   2   1     1.116023878624   150.57298271   191.45646986
 N      2   1   3     1.294809324071    33.95267411    87.46089379

---------------------------
INTERNAL COORDINATES (A.U.)
---------------------------
 N      0   0   0     0.000000000000     0.00000000     0.00000000
 N      1   0   0     4.361316225925     0.00000000     0.00000000
 N      2   1   0     2.702159614819   123.18458843     0.00000000
 N      1   2   3     2.108957830042   166.70530093   166.94878714
 N      3   2   1     2.108979489515   150.57298271   191.45646986
 N      2   1   3     2.446835018141    33.95267411    87.46089379

---------------------
BASIS SET INFORMATION
---------------------
There are 1 groups of distinct atoms

 Group   1 Type N   : 11s6p2d1f contracted to 5s3p2d1f pattern {62111/411/11/1}

Atom   0N    basis set group =>   1
Atom   1N    basis set group =>   1
Atom   2N    basis set group =>   1
Atom   3N    basis set group =>   1
Atom   4N    basis set group =>   1
Atom   5N    basis set group =>   1
---------------------------------
AUXILIARY/J BASIS SET INFORMATION
---------------------------------
There are 1 groups of distinct atoms

 Group   1 Type N   : 12s5p4d2f1g contracted to 6s4p3d1f1g pattern {711111/2111/211/2/1}

Atom   0N    basis set group =>   1
Atom   1N    basis set group =>   1
Atom   2N    basis set group =>   1
Atom   3N    basis set group =>   1
Atom   4N    basis set group =>   1
Atom   5N    basis set group =>   1


           ************************************************************
           *        Program running with 4 parallel MPI-processes     *
           *              working on a common directory               *
           ************************************************************
------------------------------------------------------------------------------
                             ORCA STARTUP CALCULATIONS
                           -- RI-GTO INTEGRALS CHOSEN --
------------------------------------------------------------------------------
------------------------------------------------------------------------------
                   ___                                                        
                  /   \      - P O W E R E D   B Y -                         
                 /     \                                                     
                 |  |  |   _    _      __       _____    __    __             
                 |  |  |  | |  | |    /  \     |  _  \  |  |  /  |          
                  \  \/   | |  | |   /    \    | | | |  |  | /  /          
                 / \  \   | |__| |  /  /\  \   | |_| |  |  |/  /          
                |  |  |   |  __  | /  /__\  \  |    /   |      \           
                |  |  |   | |  | | |   __   |  |    \   |  |\   \          
                \     /   | |  | | |  |  |  |  | |\  \  |  | \   \       
                 \___/    |_|  |_| |__|  |__|  |_| \__\ |__|  \__/        
                                                                              
                      - O R C A' S   B I G   F R I E N D -                    
                                      &                                       
                       - I N T E G R A L  F E E D E R -                       
                                                                              
 v1 FN, 2020, v2 2021, v3 2022-2024                                           
------------------------------------------------------------------------------


----------------------
SHARK INTEGRAL PACKAGE
----------------------

Number of atoms                             ...      6
Number of basis functions                   ...    186
Number of shells                            ...     66
Maximum angular momentum                    ...      3
Integral batch strategy                     ... SHARK/LIBINT Hybrid
RI-J (if used) integral strategy            ... SPLIT-RIJ (Revised 2003 algorithm where possible)
Printlevel                                  ...      1
Contraction scheme used                     ... SEGMENTED contraction
Prescreening option                         ... SCHWARTZ
   Thresh                                   ... 2.500e-11
   Tcut                                     ... 2.500e-12
   Tpresel                                  ... 2.500e-12 
Coulomb Range Separation                    ... NOT USED
Exchange Range Separation                   ... NOT USED
Multipole approximations                    ... NOT USED
Finite Nucleus Model                        ... NOT USED
CABS basis                                  ... NOT available
Auxiliary Coulomb fitting basis             ... AVAILABLE
   # of basis functions in Aux-J            ...    294
   # of shells in Aux-J                     ...     90
   Maximum angular momentum in Aux-J        ...      4
Auxiliary J/K fitting basis                 ... NOT available
Auxiliary Correlation fitting basis         ... NOT available
Auxiliary 'external' fitting basis          ... NOT available

Checking pre-screening integrals            ... done (  0.0 sec) Dimension = 66
   => SHARK Basis and OBASIS are compatible. Storing Pre-screening
Shell pair information
Shell pair cut-off parameter TPreSel        ...   2.5e-12
Total number of shell pairs                 ...      2211
Shell pairs after pre-screening             ...      1976
Total number of primitive shell pairs       ...      7392
Primitive shell pairs kept                  ...      5034
          la=0 lb=0:    389 shell pairs
          la=1 lb=0:    498 shell pairs
          la=1 lb=1:    166 shell pairs
          la=2 lb=0:    314 shell pairs
          la=2 lb=1:    206 shell pairs
          la=2 lb=2:     71 shell pairs
          la=3 lb=0:    150 shell pairs
          la=3 lb=1:    100 shell pairs
          la=3 lb=2:     64 shell pairs
          la=3 lb=3:     18 shell pairs

Checking whether 4 symmetric matrices of dimension 186 fit in memory
:Max Core in MB      =   4096.00
 MB in use           =      5.89
 MB left             =   4090.11
 MB needed           =      0.53
 Data fit in memory  = YES
Calculating RI/J V-Matrix + Cholesky decomp.... done (  0.0 sec)
Calculating Nuclear repulsion               ... done (  0.0 sec) ENN=    185.766332627376 Eh

Diagonalization of the overlap matrix:
Smallest eigenvalue                        ... 1.614e-04
Time for diagonalization                   ...    0.004 sec
Threshold for overlap eigenvalues          ... 1.000e-07
Number of eigenvalues below threshold      ... 0
Time for construction of square roots      ...    0.002 sec
Total time needed                          ...    0.009 sec

-------------------
DFT GRID GENERATION
-------------------

General Integration Accuracy     IntAcc      ... 4.388
Radial Grid Type                 RadialGrid  ... OptM3 with GC (2021)
Angular Grid (max. ang.)         AngularGrid ... 4 (Lebedev-302)
Angular grid pruning method      GridPruning ... 4 (adaptive)
Weight generation scheme         WeightScheme... mBecke (2022)
Basis function cutoff            BFCut       ... 1.0000e-11
Integration weight cutoff        WCut        ... 1.0000e-14
Partially contracted basis set               ... off
Rotationally invariant grid construction     ... off
Angular grids for H and He will be reduced by one unit

Total number of grid points                  ...    36642
Total number of batches                      ...      574
Average number of points per batch           ...       63
Average number of grid points per atom       ...     6107

--------------------
COSX GRID GENERATION
--------------------

GRIDX 1
-------
General Integration Accuracy     IntAcc      ... 3.816
Radial Grid Type                 RadialGrid  ... OptM3 with GC (2021)
Angular Grid (max. ang.)         AngularGrid ... 1 (Lebedev-50)
Angular grid pruning method      GridPruning ... 4 (adaptive)
Weight generation scheme         WeightScheme... mBecke (2022)
Basis function cutoff            BFCut       ... 1.0000e-11
Integration weight cutoff        WCut        ... 1.0000e-14
Partially contracted basis set               ... on
Rotationally invariant grid construction     ... off
Angular grids for H and He will be reduced by one unit

Total number of grid points                  ...     4616
Total number of batches                      ...       38
Average number of points per batch           ...      121
Average number of grid points per atom       ...      769
UseSFitting                                  ... on

GRIDX 2
-------
General Integration Accuracy     IntAcc      ... 4.020
Radial Grid Type                 RadialGrid  ... OptM3 with GC (2021)
Angular Grid (max. ang.)         AngularGrid ... 2 (Lebedev-110)
Angular grid pruning method      GridPruning ... 4 (adaptive)
Weight generation scheme         WeightScheme... mBecke (2022)
Basis function cutoff            BFCut       ... 1.0000e-11
Integration weight cutoff        WCut        ... 1.0000e-14
Partially contracted basis set               ... on
Rotationally invariant grid construction     ... off
Angular grids for H and He will be reduced by one unit

Total number of grid points                  ...    11204
Total number of batches                      ...       90
Average number of points per batch           ...      124
Average number of grid points per atom       ...     1867
UseSFitting                                  ... on

GRIDX 3
-------
General Integration Accuracy     IntAcc      ... 4.338
Radial Grid Type                 RadialGrid  ... OptM3 with GC (2021)
Angular Grid (max. ang.)         AngularGrid ... 3 (Lebedev-194)
Angular grid pruning method      GridPruning ... 4 (adaptive)
Weight generation scheme         WeightScheme... mBecke (2022)
Basis function cutoff            BFCut       ... 1.0000e-11
Integration weight cutoff        WCut        ... 1.0000e-14
Partially contracted basis set               ... on
Rotationally invariant grid construction     ... off
Angular grids for H and He will be reduced by one unit

Total number of grid points                  ...    24950
Total number of batches                      ...      198
Average number of points per batch           ...      126
Average number of grid points per atom       ...     4158
UseSFitting                                  ... on
Grids setup in   0.4 sec
Initializing property integral containers    ... done (  0.0 sec)

SHARK setup successfully completed in   0.5 seconds

Maximum memory used throughout the entire STARTUP-calculation: 14.7 MB


           ************************************************************
           *        Program running with 4 parallel MPI-processes     *
           *              working on a common directory               *
           ************************************************************
-------------------------------------------------------------------------------
                                 ORCA GUESS
                   Start orbitals & Density for SCF / CASSCF
-------------------------------------------------------------------------------

------------
SCF SETTINGS
------------
Hamiltonian:
 Density Functional     Method          .... DFT(GTOs)
 Exchange Functional    Exchange        .... B88
   X-Alpha parameter    XAlpha          ....  0.666667
   Becke's b parameter  XBeta           ....  0.004200
 Correlation Functional Correlation     .... LYP
 LDA part of GGA corr.  LDAOpt          .... VWN-5
 Gradients option       PostSCFGGA      .... off
 Hybrid DFT is turned on
   Fraction HF Exchange ScalHFX         ....  0.200000
   Scaling of DF-GGA-X  ScalDFX         ....  0.720000
   Scaling of DF-GGA-C  ScalDFC         ....  0.810000
   Scaling of DF-LDA-C  ScalLDAC        ....  1.000000
   Perturbative correction              ....  0.000000
   NL short-range parameter             ....  4.800000
 RI-approximation to the Coulomb term is turned on
   Number of AuxJ basis functions       .... 294
   RIJ-COSX (HFX calculated with COS-X)).... on


General Settings:
 Integral files         IntName         .... orca
 Hartree-Fock type      HFTyp           .... RHF
 Total Charge           Charge          ....    0
 Multiplicity           Mult            ....    1
 Number of Electrons    NEL             ....   42
 Basis Dimension        Dim             ....  186
 Nuclear Repulsion      ENuc            ....    185.7663326274 Eh

Convergence Acceleration:
 AO-DIIS                CNVDIIS         .... on
   Start iteration      DIISMaxIt       ....    12
   Startup error        DIISStart       ....  0.200000
   # of expansion vecs  DIISMaxEq       ....     5
   Bias factor          DIISBfac        ....   1.050
   Max. coefficient     DIISMaxC        ....  10.000
 MO-DIIS                CNVKDIIS        .... off
 Trust-Rad. Augm. Hess. CNVTRAH         .... auto
   Auto Start mean grad. ratio tolernc. ....  1.125000
   Auto Start start iteration           ....    50
   Auto Start num. interpolation iter.  ....    10
   Max. Number of Micro iterations      ....    24
   Max. Number of Macro iterations      .... Maxiter - #DIIS iter
   Number of Davidson start vectors     ....     2
   Converg. threshold    (grad. norm)   ....   1.000e-05
   Grad. Scal. Fac. for Micro threshold ....   0.100
   Minimum threshold for Micro iter.    ....   1.000e-02
   NR start threshold (gradient norm)   ....   1.000e-04
   Initial trust radius                 ....   0.400
   Minimum AH scaling param. (alpha)    ....   1.000
   Maximum AH scaling param. (alpha)    .... 1000.000
   Quad. conv. algorithm                .... NR
   White noise on init. David. guess    .... on
   Maximum white noise                  ....   0.010
   Pseudo random numbers                .... off
   Inactive MOs                         .... canonical
   Orbital update algorithm             .... Taylor
   Preconditioner                       .... Diag
   Full preconditioner red. dimension   ....   250
 SOSCF                 CNVSOSCF           .... on
   Start iteration     SOSCFMaxIt         ....   150
   Startup grad/error  SOSCFStart         ....  0.003300
   Hessian update      SOSCFHessUp        .... L-BFGS
   Autom. constraints  SOSCFAutoConstrain .... off
 Level Shifting         CNVShift        .... on
   Level shift para.    LevelShift      ....    0.2500
   Turn off err/grad.   ShiftErr        ....    0.0010
 Zerner damping         CNVZerner       .... off
 Static damping         CNVDamp         .... on
   Fraction old density DampFac         ....    0.7000
   Max. Damping (<1)    DampMax         ....    0.9800
   Min. Damping (>=0)   DampMin         ....    0.0000
   Turn off err/grad.   DampErr         ....    0.1000

SCF Procedure:
 Maximum # iterations   MaxIter         ....   125
 SCF integral mode      SCFMode         .... Direct
   Integral package                     .... SHARK and LIBINT hybrid scheme
 Reset frequency        DirectResetFreq ....    20
 Integral Threshold     Thresh          ....  2.500e-11 Eh
 Primitive CutOff       TCut            ....  2.500e-12 Eh

Convergence Tolerance:
 Convergence Check Mode ConvCheckMode   .... Total+1el-Energy
 Convergence forced     ConvForced      .... 0
 Energy Change          TolE            ....  1.000e-08 Eh
 1-El. energy change                    ....  1.000e-05 Eh
 Orbital Gradient       TolG            ....  1.000e-05
 Orbital Rotation angle TolX            ....  1.000e-05
 DIIS Error             TolErr          ....  5.000e-07

------------------------------
INITIAL GUESS: MODEL POTENTIAL
------------------------------
Loading Hartree-Fock densities                     ... done
Calculating cut-offs                               ... done
Initializing the effective Hamiltonian             ... done
Setting up the integral package (SHARK)            ... done
Starting the Coulomb interaction                   ... done (   0.0 sec)
Making the grid                                    ... done (   0.0 sec)
Mapping shells                                     ... done
Starting the XC term evaluation                    ... done (   0.0 sec)
  promolecular density results
     # of electrons  =     42.000088741
     EX              =    -39.262435723
     EC              =     -1.485621817
     EX+EC           =    -40.748057540
Transforming the Hamiltonian                       ... done (   0.0 sec)
Diagonalizing the Hamiltonian                      ... done (   0.0 sec)
Back transforming the eigenvectors                 ... done (   0.0 sec)
Now organizing SCF variables                       ... done
                      ------------------
                      INITIAL GUESS DONE (   0.1 sec)
                      ------------------
             **** ENERGY FILE WAS UPDATED (orca.en.tmp) ****
Finished Guess after   0.4 sec
Maximum memory used throughout the entire GUESS-calculation: 11.0 MB


           ************************************************************
           *        Program running with 4 parallel MPI-processes     *
           *              working on a common directory               *
           ************************************************************

-------------------------------------------------------------------------------------------
                                      ORCA LEAN-SCF
                              memory conserving SCF solver
-------------------------------------------------------------------------------------------

----------------------------------------D-I-I-S--------------------------------------------
Iteration    Energy (Eh)           Delta-E    RMSDP     MaxDP     DIISErr   Damp  Time(sec)
-------------------------------------------------------------------------------------------
               ***  Starting incremental Fock matrix formation  ***
    1    -328.1988054573606632     0.00e+00  2.84e-03  4.07e-02  1.25e-01  0.700   0.9
    2    -328.2336806409954306    -3.49e-02  2.04e-03  3.07e-02  5.33e-02  0.700   0.5
                               ***Turning on AO-DIIS***
    3    -328.2463542448308544    -1.27e-02  9.74e-04  1.33e-02  2.75e-02  0.700   0.5
    4    -328.2547208973738861    -8.37e-03  1.65e-03  2.07e-02  1.65e-02  0.000   0.5
    5    -328.2731753998284603    -1.85e-02  2.95e-04  5.42e-03  3.84e-03  0.000   0.5
    6    -328.2732729402166569    -9.75e-05  1.32e-04  1.16e-03  4.31e-03  0.000   0.5
                              *** Initializing SOSCF ***
---------------------------------------S-O-S-C-F--------------------------------------
Iteration    Energy (Eh)           Delta-E    RMSDP     MaxDP     MaxGrad    Time(sec)
--------------------------------------------------------------------------------------
    7    -328.2733380508709615    -6.51e-05  4.87e-05  7.57e-04  4.30e-04     0.5
               *** Restarting incremental Fock matrix formation ***
    8    -328.2733348002373077     3.25e-06  4.73e-05  5.02e-04  2.18e-04     0.9
    9    -328.2733331080609105     1.69e-06  3.38e-05  2.34e-04  6.11e-04     0.7
   10    -328.2733359801225106    -2.87e-06  1.37e-05  1.94e-04  6.44e-05     0.7
   11    -328.2733358411387599     1.39e-07  6.78e-06  7.26e-05  1.33e-04     0.7
   12    -328.2733360608518751    -2.20e-07  2.84e-06  2.54e-05  1.08e-05     0.7
   13    -328.2733360627687489    -1.92e-09  8.84e-07  7.13e-06  4.61e-06     0.7
                 **** Energy Check signals convergence ****

               *****************************************************
               *                     SUCCESS                       *
               *           SCF CONVERGED AFTER  13 CYCLES          *
               *****************************************************

Recomputing exchange energy using gridx3       ... done (    1.330 sec)
Old exchange energy                            :     -7.847832151 Eh
New exchange energy                            :     -7.847841372 Eh
Exchange energy change after final integration :     -0.000009221 Eh
Total energy after final integration           :   -328.273345285 Eh
             **** ENERGY FILE WAS UPDATED (orca.en.tmp) ****

----------------
TOTAL SCF ENERGY
----------------

Total Energy       :       -328.27334528516872 Eh           -8932.77186 eV

Components:
Nuclear Repulsion  :        185.76633262737573 Eh            5054.95890 eV
Electronic Energy  :       -514.03966869162036 Eh          -13987.73051 eV
One Electron Energy:       -812.36684687445700 Eh          -22105.62573 eV
Two Electron Energy:        298.32717818283663 Eh            8117.89522 eV

Virial components:
Potential Energy   :       -655.33923389573977 Eh          -17832.68715 eV
Kinetic Energy     :        327.06588861057105 Eh            8899.91529 eV
Virial Ratio       :          2.00369178418369

DFT components:
N(Alpha)           :       21.000003694234 electrons
N(Beta)            :       21.000003694234 electrons
N(Total)           :       42.000007388469 electrons
E(X)               :      -31.413417485469 Eh       
E(C)               :       -1.746929016166 Eh       
E(XC)              :      -33.160346501635 Eh       

---------------
SCF CONVERGENCE
---------------

  Last Energy change         ...    1.9169e-09  Tolerance :   1.0000e-08
  Last MAX-Density change    ...    7.1271e-06  Tolerance :   1.0000e-07
  Last RMS-Density change    ...    8.8382e-07  Tolerance :   5.0000e-09
  Last DIIS Error            ...    4.2988e-04  Tolerance :   5.0000e-07
  Last Orbital Gradient      ...    4.6108e-06  Tolerance :   1.0000e-05
  Last Orbital Rotation      ...    1.2801e-05  Tolerance :   1.0000e-05


----------------
ORBITAL ENERGIES
----------------

  NO   OCC          E(Eh)            E(eV) 
   0   2.0000     -14.487290      -394.2192 
   1   2.0000     -14.487248      -394.2181 
   2   2.0000     -14.430065      -392.6620 
   3   2.0000     -14.430053      -392.6617 
   4   2.0000     -14.408608      -392.0782 
   5   2.0000     -14.408268      -392.0689 
   6   2.0000      -1.162376       -31.6299 
   7   2.0000      -1.154375       -31.4121 
   8   2.0000      -1.041271       -28.3344 
   9   2.0000      -0.845252       -23.0005 
  10   2.0000      -0.690479       -18.7889 
  11   2.0000      -0.539572       -14.6825 
  12   2.0000      -0.530374       -14.4322 
  13   2.0000      -0.514594       -14.0028 
  14   2.0000      -0.510442       -13.8898 
  15   2.0000      -0.485358       -13.2073 
  16   2.0000      -0.482916       -13.1408 
  17   2.0000      -0.430271       -11.7083 
  18   2.0000      -0.379075       -10.3151 
  19   2.0000      -0.277990        -7.5645 
  20   2.0000      -0.258661        -7.0385 
  21   0.0000      -0.106819        -2.9067 
  22   0.0000      -0.087744        -2.3876 
  23   0.0000      -0.050070        -1.3625 
  24   0.0000      -0.021081        -0.5737 
  25   0.0000       0.067790         1.8447 
  26   0.0000       0.137956         3.7540 
  27   0.0000       0.200710         5.4616 
  28   0.0000       0.204314         5.5597 
  29   0.0000       0.253100         6.8872 
  30   0.0000       0.257998         7.0205 
  31   0.0000       0.259834         7.0704 
*Only the first 10 virtual orbitals were printed.

                    ********************************
                    * MULLIKEN POPULATION ANALYSIS *
                    ********************************

-----------------------
MULLIKEN ATOMIC CHARGES
-----------------------
   0 N :    0.226951
   1 N :   -0.151255
   2 N :    0.227070
   3 N :   -0.075701
   4 N :   -0.075724
   5 N :   -0.151341
Sum of atomic charges:    0.0000000

--------------------------------
MULLIKEN REDUCED ORBITAL CHARGES
--------------------------------
  0 N s       :     3.436886  s :     3.436886
      pz      :     1.111393  p :     3.215022
      px      :     1.002099
      py      :     1.101530
      dz2     :     0.006207  d :     0.112039
      dxz     :     0.037740
      dyz     :     0.005216
      dx2y2   :     0.022025
      dxy     :     0.040853
      f0      :     0.001165  f :     0.009101
      f+1     :     0.000856
      f-1     :     0.000326
      f+2     :     0.001624
      f-2     :     0.000657
      f+3     :     0.001566
      f-3     :     0.002908

  1 N s       :     3.725407  s :     3.725407
      pz      :     1.245021  p :     3.332713
      px      :     0.877101
      py      :     1.210591
      dz2     :     0.016695  d :     0.086330
      dxz     :     0.021680
      dyz     :     0.010603
      dx2y2   :     0.011917
      dxy     :     0.025435
      f0      :     0.000717  f :     0.006805
      f+1     :     0.001203
      f-1     :     0.000197
      f+2     :     0.001007
      f-2     :     0.001525
      f+3     :     0.001099
      f-3     :     0.001058

  2 N s       :     3.436701  s :     3.436701
      pz      :     1.111447  p :     3.215059
      px      :     1.002036
      py      :     1.101576
      dz2     :     0.006209  d :     0.112064
      dxz     :     0.037748
      dyz     :     0.005220
      dx2y2   :     0.022033
      dxy     :     0.040854
      f0      :     0.001166  f :     0.009105
      f+1     :     0.000856
      f-1     :     0.000326
      f+2     :     0.001624
      f-2     :     0.000658
      f+3     :     0.001567
      f-3     :     0.002908

  3 N s       :     3.894844  s :     3.894844
      pz      :     0.958368  p :     3.109222
      px      :     1.085312
      py      :     1.065543
      dz2     :     0.004426  d :     0.066374
      dxz     :     0.024280
      dyz     :     0.000602
      dx2y2   :     0.014106
      dxy     :     0.022959
      f0      :     0.000777  f :     0.005261
      f+1     :     0.000340
      f-1     :     0.000125
      f+2     :     0.001248
      f-2     :     0.000138
      f+3     :     0.000890
      f-3     :     0.001743

  4 N s       :     3.894867  s :     3.894867
      pz      :     0.958396  p :     3.109221
      px      :     1.085239
      py      :     1.065586
      dz2     :     0.004427  d :     0.066375
      dxz     :     0.024278
      dyz     :     0.000603
      dx2y2   :     0.014110
      dxy     :     0.022956
      f0      :     0.000777  f :     0.005261
      f+1     :     0.000340
      f-1     :     0.000125
      f+2     :     0.001247
      f-2     :     0.000138
      f+3     :     0.000891
      f-3     :     0.001743

  5 N s       :     3.725545  s :     3.725545
      pz      :     1.245011  p :     3.332675
      px      :     0.877106
      py      :     1.210559
      dz2     :     0.016690  d :     0.086316
      dxz     :     0.021676
      dyz     :     0.010601
      dx2y2   :     0.011917
      dxy     :     0.025433
      f0      :     0.000717  f :     0.006804
      f+1     :     0.001203
      f-1     :     0.000197
      f+2     :     0.001007
      f-2     :     0.001525
      f+3     :     0.001098
      f-3     :     0.001058


------------------------
MULLIKEN OVERLAP CHARGES
------------------------
B(  0-N ,  1-N ) :  -0.1083 B(  0-N ,  3-N ) :   0.9261 B(  1-N ,  4-N ) :  -0.1051 
B(  1-N ,  5-N ) :   0.3311 B(  2-N ,  4-N ) :   0.9259 B(  2-N ,  5-N ) :  -0.1084 
B(  3-N ,  5-N ) :  -0.1051 


                     *******************************
                     * LOEWDIN POPULATION ANALYSIS *
                     *******************************

----------------------
LOEWDIN ATOMIC CHARGES
----------------------
   0 N :    0.087745
   1 N :   -0.143396
   2 N :    0.087768
   3 N :    0.055660
   4 N :    0.055667
   5 N :   -0.143445

-------------------------------
LOEWDIN REDUCED ORBITAL CHARGES
-------------------------------
  0 N s       :     3.082529  s :     3.082529
      pz      :     1.055947  p :     3.409150
      px      :     1.290825
      py      :     1.062378
      dz2     :     0.031170  d :     0.388477
      dxz     :     0.108000
      dyz     :     0.018778
      dx2y2   :     0.094867
      dxy     :     0.135662
      f0      :     0.003005  f :     0.032099
      f+1     :     0.005053
      f-1     :     0.000922
      f+2     :     0.004349
      f-2     :     0.002192
      f+3     :     0.006850
      f-3     :     0.009730

  1 N s       :     3.238918  s :     3.238918
      pz      :     1.344902  p :     3.557811
      px      :     1.007941
      py      :     1.204969
      dz2     :     0.054205  d :     0.314475
      dxz     :     0.089039
      dyz     :     0.021225
      dx2y2   :     0.048715
      dxy     :     0.101291
      f0      :     0.003842  f :     0.032191
      f+1     :     0.006395
      f-1     :     0.000931
      f+2     :     0.004725
      f-2     :     0.008033
      f+3     :     0.004046
      f-3     :     0.004219

  2 N s       :     3.082371  s :     3.082371
      pz      :     1.055973  p :     3.409162
      px      :     1.290773
      py      :     1.062416
      dz2     :     0.031177  d :     0.388596
      dxz     :     0.108043
      dyz     :     0.018794
      dx2y2   :     0.094899
      dxy     :     0.135682
      f0      :     0.003005  f :     0.032103
      f+1     :     0.005053
      f-1     :     0.000922
      f+2     :     0.004349
      f-2     :     0.002193
      f+3     :     0.006850
      f-3     :     0.009731

  3 N s       :     3.379744  s :     3.379744
      pz      :     0.942652  p :     3.357012
      px      :     1.374091
      py      :     1.040269
      dz2     :     0.019691  d :     0.178546
      dxz     :     0.047918
      dyz     :     0.001213
      dx2y2   :     0.060893
      dxy     :     0.048830
      f0      :     0.003364  f :     0.029038
      f+1     :     0.003928
      f-1     :     0.000647
      f+2     :     0.005153
      f-2     :     0.000533
      f+3     :     0.007186
      f-3     :     0.008228

  4 N s       :     3.379733  s :     3.379733
      pz      :     0.942675  p :     3.357013
      px      :     1.374020
      py      :     1.040318
      dz2     :     0.019692  d :     0.178547
      dxz     :     0.047917
      dyz     :     0.001215
      dx2y2   :     0.060891
      dxy     :     0.048832
      f0      :     0.003364  f :     0.029040
      f+1     :     0.003928
      f-1     :     0.000648
      f+2     :     0.005153
      f-2     :     0.000534
      f+3     :     0.007186
      f-3     :     0.008227

  5 N s       :     3.239087  s :     3.239087
      pz      :     1.344909  p :     3.557772
      px      :     1.007910
      py      :     1.204953
      dz2     :     0.054192  d :     0.314403
      dxz     :     0.089012
      dyz     :     0.021220
      dx2y2   :     0.048706
      dxy     :     0.101273
      f0      :     0.003841  f :     0.032182
      f+1     :     0.006393
      f-1     :     0.000931
      f+2     :     0.004725
      f-2     :     0.008031
      f+3     :     0.004044
      f-3     :     0.004217


---------------------------------
LOEWDIN BOND ORDERS (THRESH 0.050000)
---------------------------------
B(  0-N ,  1-N ) :   0.2311 B(  0-N ,  2-N ) :   0.0508 B(  0-N ,  3-N ) :   3.2001 
B(  0-N ,  5-N ) :   1.5601 B(  1-N ,  2-N ) :   1.5606 B(  1-N ,  3-N ) :   0.0760 
B(  1-N ,  4-N ) :   0.3721 B(  1-N ,  5-N ) :   1.9451 B(  2-N ,  4-N ) :   3.1999 
B(  2-N ,  5-N ) :   0.2312 B(  3-N ,  5-N ) :   0.3720 B(  4-N ,  5-N ) :   0.0761 


------------------------------------------
LOEWDIN REDUCED ORBITAL POPULATIONS PER MO
-------------------------------------------
THRESHOLD FOR PRINTING IS 0.1%%
                      0         1         2         3         4         5   
                 -14.48729 -14.48725 -14.43006 -14.43005 -14.40861 -14.40827
                   2.00000   2.00000   2.00000   2.00000   2.00000   2.00000
                  --------  --------  --------  --------  --------  --------
 0 N  s               0.5      98.6       0.0       0.1       0.0       0.0
 0 N  px              0.0       0.0       0.0       0.2       0.0       0.0
 0 N  dz2             0.0       0.0       0.0       0.1       0.0       0.0
 0 N  dx2y2           0.0       0.0       0.0       0.3       0.0       0.0
 1 N  s               0.0       0.0       0.0       0.0      53.2      46.4
 2 N  s              98.6       0.5       0.1       0.0       0.0       0.0
 2 N  px              0.0       0.0       0.2       0.0       0.0       0.0
 2 N  dz2             0.0       0.0       0.1       0.0       0.0       0.0
 2 N  dx2y2           0.0       0.0       0.3       0.0       0.0       0.0
 3 N  s               0.0       0.0       0.4      98.7       0.0       0.0
 3 N  px              0.0       0.2       0.0       0.0       0.0       0.0
 3 N  dz2             0.0       0.1       0.0       0.0       0.0       0.0
 3 N  dx2y2           0.0       0.3       0.0       0.0       0.0       0.0
 4 N  s               0.0       0.0      98.7       0.4       0.0       0.0
 4 N  px              0.2       0.0       0.0       0.0       0.0       0.0
 4 N  dz2             0.1       0.0       0.0       0.0       0.0       0.0
 4 N  dx2y2           0.3       0.0       0.0       0.0       0.0       0.0
 5 N  s               0.0       0.0       0.0       0.0      46.4      53.2

                      6         7         8         9        10        11   
                  -1.16238  -1.15438  -1.04127  -0.84525  -0.69048  -0.53957
                   2.00000   2.00000   2.00000   2.00000   2.00000   2.00000
                  --------  --------  --------  --------  --------  --------
 0 N  s              18.5      17.8       0.2       3.8       5.3       1.9
 0 N  pz              0.0       0.0       0.1       0.8       1.2      15.9
 0 N  px              2.9       5.2      10.5      15.3       9.5       1.5
 0 N  py              0.0       0.1       1.4       2.7       1.0       0.5
 0 N  dz2             0.3       0.2       0.0       0.0       0.2       0.0
 0 N  dxz             0.0       0.0       0.1       0.1       0.0       0.0
 0 N  dx2y2           0.7       0.6       0.0       0.1       0.3       0.2
 0 N  dxy             0.2       0.1       0.2       0.2       0.0       0.0
 1 N  s               5.1       0.6      24.8       9.5       0.9       3.9
 1 N  pz              0.7       0.0       3.5       0.2       1.5      10.1
 1 N  px              0.1       2.1       3.6      10.3      17.8       0.1
 1 N  py              0.5       0.2       0.2       0.9       4.9       0.1
 1 N  dz2             0.1       0.0       0.0       0.0       0.5       0.3
 1 N  dxz             0.0       0.1       0.7       0.8       1.1       0.0
 1 N  dyz             0.0       0.0       0.0       0.0       0.2       0.1
 1 N  dx2y2           0.2       0.0       0.4       0.1       0.0       0.0
 1 N  dxy             0.1       0.1       0.0       0.5       0.2       0.1
 2 N  s              18.7      17.6       0.2       3.8       5.3       1.9
 2 N  pz              0.0       0.0       0.1       0.8       1.2      16.0
 2 N  px              2.9       5.2      10.5      15.3       9.5       1.5
 2 N  py              0.0       0.1       1.4       2.7       1.0       0.5
 2 N  dz2             0.3       0.2       0.0       0.0       0.2       0.0
 2 N  dxz             0.0       0.0       0.1       0.1       0.0       0.0
 2 N  dx2y2           0.7       0.6       0.0       0.1       0.3       0.2
 2 N  dxy             0.2       0.1       0.2       0.2       0.0       0.0
 3 N  s              13.0      14.7       2.9       3.2       3.3       2.9
 3 N  pz              0.0       0.0       0.0       0.1       0.2       7.7
 3 N  px              6.3       6.8       1.0       0.9       1.1       3.5
 3 N  py              0.2       0.2       0.0       0.1       0.2       0.1
 3 N  dz2             0.2       0.2       0.0       0.0       0.1       0.0
 3 N  dxz             0.0       0.0       0.0       0.0       0.0       0.7
 3 N  dx2y2           0.6       0.7       0.0       0.0       0.2       0.2
 4 N  s              13.1      14.6       2.9       3.2       3.3       2.9
 4 N  pz              0.0       0.0       0.0       0.1       0.2       7.7
 4 N  px              6.3       6.8       1.0       0.9       1.1       3.5
 4 N  py              0.2       0.2       0.0       0.1       0.2       0.1
 4 N  dz2             0.2       0.2       0.0       0.0       0.1       0.0
 4 N  dxz             0.0       0.0       0.0       0.0       0.0       0.7
 4 N  dx2y2           0.6       0.7       0.0       0.0       0.2       0.2
 5 N  s               5.0       0.6      24.7       9.5       0.9       3.9
 5 N  pz              0.7       0.0       3.5       0.2       1.5      10.1
 5 N  px              0.1       2.1       3.6      10.3      17.8       0.1
 5 N  py              0.5       0.2       0.2       0.9       4.9       0.1
 5 N  dz2             0.1       0.0       0.0       0.0       0.5       0.3
 5 N  dxz             0.0       0.1       0.7       0.8       1.1       0.0
 5 N  dyz             0.0       0.0       0.0       0.0       0.2       0.1
 5 N  dx2y2           0.2       0.0       0.4       0.1       0.0       0.0
 5 N  dxy             0.1       0.1       0.0       0.5       0.2       0.1

                     12        13        14        15        16        17   
                  -0.53037  -0.51459  -0.51044  -0.48536  -0.48292  -0.43027
                   2.00000   2.00000   2.00000   2.00000   2.00000   2.00000
                  --------  --------  --------  --------  --------  --------
 0 N  s               1.0       0.8       0.5       0.9       0.8       0.1
 0 N  pz              4.9       2.8      15.1       1.3       4.8       5.3
 0 N  px              2.2       1.4       0.3       5.0       4.5       0.5
 0 N  py             16.0      17.8       6.4       4.8       0.4       0.1
 0 N  dz2             0.0       0.1       0.0       0.1       0.1       0.0
 0 N  dxz             0.0       0.0       0.2       0.1       0.2       1.9
 0 N  dyz             0.0       0.0       0.0       0.0       0.0       0.2
 0 N  dx2y2           0.0       0.2       0.1       0.2       0.3       0.0
 0 N  dxy             0.0       0.1       0.2       0.4       0.0       0.0
 1 N  s               0.9       0.0       0.2       0.1       0.1       7.7
 1 N  pz              0.7       1.6       1.0       0.3       0.1      18.7
 1 N  px              2.3       1.0       0.0       0.2       0.6       1.2
 1 N  py              4.7       1.0       2.0       0.3       2.2       0.5
 1 N  dz2             0.0       0.1       0.0       0.0       0.0       0.1
 1 N  dxz             0.0       0.0       0.3       0.0       0.2       0.6
 1 N  dyz             0.2       0.0       0.0       0.0       0.1       0.0
 1 N  dx2y2           0.2       0.1       0.1       0.3       0.0       0.1
 1 N  dxy             0.0       0.3       0.0       0.1       0.0       0.3
 1 N  f+1             0.0       0.0       0.0       0.0       0.0       0.1
 2 N  s               1.0       0.8       0.6       0.9       0.8       0.1
 2 N  pz              4.9       2.9      15.0       1.3       4.8       5.3
 2 N  px              2.2       1.4       0.3       5.1       4.4       0.5
 2 N  py             16.0      17.9       6.3       4.8       0.4       0.1
 2 N  dz2             0.0       0.1       0.0       0.1       0.1       0.0
 2 N  dxz             0.0       0.0       0.2       0.1       0.2       1.9
 2 N  dyz             0.0       0.0       0.0       0.0       0.0       0.2
 2 N  dx2y2           0.0       0.2       0.1       0.2       0.3       0.0
 2 N  dxy             0.0       0.1       0.2       0.4       0.0       0.0
 3 N  s               1.3       3.0       3.0      10.8      11.3       0.1
 3 N  pz              2.7       1.8      10.1       1.1       4.4      11.3
 3 N  px              3.1       6.5       2.9      14.7      19.3       0.5
 3 N  py              8.2       9.8       5.8       8.3       0.1       0.0
 3 N  dxz             0.2       0.1       0.7       0.1       0.2       0.3
 3 N  dx2y2           0.3       0.3       0.0       0.1       0.2       0.0
 3 N  dxy             0.6       0.6       0.4       0.4       0.0       0.0
 3 N  f-3             0.1       0.1       0.1       0.1       0.0       0.0
 4 N  s               1.3       2.9       3.1      10.9      11.1       0.1
 4 N  pz              2.7       1.9      10.1       1.2       4.4      11.3
 4 N  px              3.1       6.4       2.9      15.0      19.1       0.5
 4 N  py              8.2       9.9       5.7       8.3       0.1       0.0
 4 N  dxz             0.2       0.1       0.7       0.1       0.2       0.3
 4 N  dx2y2           0.3       0.3       0.0       0.1       0.2       0.0
 4 N  dxy             0.6       0.6       0.4       0.4       0.0       0.0
 4 N  f-3             0.1       0.1       0.1       0.1       0.0       0.0
 5 N  s               0.9       0.0       0.2       0.1       0.1       7.7
 5 N  pz              0.7       1.5       1.0       0.3       0.1      18.7
 5 N  px              2.3       1.0       0.1       0.2       0.6       1.2
 5 N  py              4.7       1.0       2.1       0.3       2.2       0.5
 5 N  dz2             0.0       0.1       0.0       0.0       0.0       0.1
 5 N  dxz             0.0       0.0       0.3       0.0       0.2       0.6
 5 N  dyz             0.2       0.0       0.0       0.0       0.1       0.0
 5 N  dx2y2           0.2       0.1       0.1       0.3       0.0       0.1
 5 N  dxy             0.0       0.3       0.0       0.1       0.0       0.3
 5 N  f+1             0.0       0.0       0.0       0.0       0.0       0.1

                     18        19        20        21        22        23   
                  -0.37907  -0.27799  -0.25866  -0.10682  -0.08774  -0.05007
                   2.00000   2.00000   2.00000   0.00000   0.00000   0.00000
                  --------  --------  --------  --------  --------  --------
 0 N  s               0.3       1.3       1.7       2.0       1.0       0.2
 0 N  pz              0.3       0.2       0.0       1.9      10.3      11.8
 0 N  px              0.4       2.5       2.5       2.3       0.9       0.4
 0 N  py              1.3       0.1       0.5       6.9       1.0       4.3
 0 N  dz2             0.0       0.0       0.3       0.3       0.1       0.1
 0 N  dxz             0.2       2.4       0.1       0.9       3.2       1.6
 0 N  dyz             0.2       0.3       0.1       0.0       0.0       0.0
 0 N  dx2y2           1.1       0.5       0.3       0.1       0.2       0.0
 0 N  dxy             1.1       0.0       4.0       3.9       0.7       0.6
 0 N  f0              0.0       0.0       0.0       0.0       0.1       0.2
 0 N  f+2             0.0       0.0       0.0       0.0       0.1       0.2
 0 N  f-3             0.1       0.0       0.1       0.1       0.0       0.1
 1 N  s               2.9       3.7       2.0       1.6       0.3       0.5
 1 N  pz              3.0      23.4       2.4       3.1       1.1       3.3
 1 N  px              5.5       0.2       5.4       1.4       1.5       0.3
 1 N  py             22.9       4.9      15.0       2.6       5.9       1.1
 1 N  dz2             0.0       1.1       0.5       0.2       0.0       0.9
 1 N  dxz             0.0       0.4       0.0       0.1       0.5       0.5
 1 N  dyz             0.2       0.0       0.1       0.0       1.0       0.1
 1 N  dx2y2           0.1       0.5       0.3       0.8       0.1       0.0
 1 N  dxy             0.5       0.7       2.2       0.3       0.1       0.7
 1 N  f-2             0.1       0.1       0.2       0.0       0.0       0.0
 2 N  s               0.3       1.3       1.7       2.0       1.0       0.2
 2 N  pz              0.3       0.2       0.0       1.9      10.4      11.7
 2 N  px              0.4       2.5       2.5       2.3       0.9       0.4
 2 N  py              1.3       0.1       0.5       6.9       1.0       4.3
 2 N  dz2             0.0       0.0       0.3       0.3       0.1       0.1
 2 N  dxz             0.2       2.4       0.1       0.9       3.2       1.6
 2 N  dyz             0.2       0.3       0.1       0.0       0.0       0.0
 2 N  dx2y2           1.1       0.5       0.3       0.1       0.2       0.0
 2 N  dxy             1.1       0.0       4.0       3.9       0.7       0.6
 2 N  f0              0.0       0.0       0.0       0.0       0.1       0.2
 2 N  f+2             0.0       0.0       0.0       0.0       0.1       0.2
 2 N  f-3             0.1       0.0       0.1       0.1       0.0       0.1
 3 N  s               0.2       0.1       0.2       0.6       0.3       0.0
 3 N  pz              1.2       6.2       0.2       3.7      16.6      14.2
 3 N  px              0.1       0.4       1.4       1.2       0.4       0.2
 3 N  py              8.3       0.6      10.2      13.7       1.7       4.7
 3 N  dxz             0.0       0.0       0.0       0.3       2.0       2.4
 3 N  dx2y2           0.0       0.0       0.1       0.3       0.1       0.1
 3 N  dxy             0.1       0.0       0.1       1.3       0.2       0.8
 3 N  f0              0.0       0.0       0.0       0.0       0.1       0.1
 3 N  f+2             0.0       0.0       0.0       0.0       0.2       0.2
 3 N  f-3             0.0       0.0       0.0       0.2       0.0       0.1
 4 N  s               0.2       0.1       0.2       0.6       0.3       0.0
 4 N  pz              1.2       6.2       0.2       3.7      16.6      14.2
 4 N  px              0.1       0.4       1.4       1.2       0.4       0.2
 4 N  py              8.3       0.6      10.2      13.7       1.7       4.7
 4 N  dxz             0.0       0.0       0.0       0.3       2.0       2.4
 4 N  dx2y2           0.0       0.0       0.1       0.3       0.1       0.1
 4 N  dxy             0.1       0.0       0.1       1.3       0.2       0.8
 4 N  f0              0.0       0.0       0.0       0.0       0.1       0.1
 4 N  f+2             0.0       0.0       0.0       0.0       0.2       0.2
 4 N  f-3             0.0       0.0       0.0       0.2       0.0       0.1
 5 N  s               2.9       3.7       2.0       1.6       0.3       0.5
 5 N  pz              3.0      23.4       2.5       3.1       1.1       3.3
 5 N  px              5.5       0.2       5.4       1.4       1.5       0.3
 5 N  py             22.9       4.8      15.1       2.6       5.9       1.1
 5 N  dz2             0.0       1.1       0.5       0.2       0.0       0.9
 5 N  dxz             0.0       0.4       0.0       0.1       0.5       0.5
 5 N  dyz             0.2       0.0       0.1       0.0       1.0       0.1
 5 N  dx2y2           0.1       0.5       0.3       0.8       0.1       0.0
 5 N  dxy             0.5       0.7       2.2       0.3       0.1       0.7
 5 N  f-2             0.1       0.1       0.2       0.0       0.0       0.0

                     24        25        26        27        28        29   
                  -0.02108   0.06779   0.13796   0.20071   0.20431   0.25310
                   0.00000   0.00000   0.00000   0.00000   0.00000   0.00000
                  --------  --------  --------  --------  --------  --------
 0 N  s               0.2       3.7       5.9       8.5      11.3       2.1
 0 N  pz              3.5       2.1       3.2       0.6       0.1      10.1
 0 N  px              0.2       1.6       0.1       2.3       2.0       0.5
 0 N  py             12.6       2.6       4.3       0.2       2.7       0.0
 0 N  dz2             0.1       1.6       2.1       0.8       0.4       0.0
 0 N  dxz             0.2       0.1       0.2       0.1       0.0       0.0
 0 N  dyz             0.1       0.0       0.7       0.1       0.1       0.1
 0 N  dx2y2           0.0       4.0       1.9       0.4       0.1       0.3
 0 N  dxy             1.0       0.9       1.1       0.0       0.0       0.0
 0 N  f0              0.0       0.1       0.1       0.0       0.0       0.1
 0 N  f+2             0.1       0.1       0.1       0.0       0.0       0.1
 0 N  f-2             0.0       0.1       0.1       0.0       0.0       0.0
 0 N  f+3             0.2       0.1       0.2       0.0       0.0       0.0
 0 N  f-3             0.2       0.2       0.2       0.0       0.0       0.0
 1 N  s               0.1       5.3       5.1       1.1       3.4       2.5
 1 N  pz              0.8       2.5       1.9       0.5       3.9      12.4
 1 N  px              1.7       1.5       8.4      12.0       5.1       1.3
 1 N  py              7.5       7.8       0.1       3.6       0.3       0.2
 1 N  dz2             0.0       1.0       0.1       1.0       0.4       0.5
 1 N  dxz             0.5       0.4       0.5       3.0       0.3       1.1
 1 N  dyz             0.2       1.1       0.0       1.3       0.0       0.4
 1 N  dx2y2           0.7       3.3       0.2       0.0       0.3       0.2
 1 N  dxy             0.2       0.2       0.7       0.6       3.0       0.1
 1 N  f0              0.0       0.1       0.0       0.0       0.0       0.0
 1 N  f+1             0.0       0.0       0.1       0.0       0.2       0.0
 1 N  f+2             0.0       0.2       0.0       0.0       0.0       0.1
 1 N  f-2             0.1       0.0       0.0       0.0       0.1       0.0
 1 N  f-3             0.0       0.2       0.0       0.1       0.1       0.0
 2 N  s               0.2       3.7       5.9       8.3      11.5       2.1
 2 N  pz              3.5       2.1       3.2       0.6       0.1      10.1
 2 N  px              0.2       1.6       0.1       2.3       2.0       0.5
 2 N  py             12.6       2.6       4.3       0.2       2.7       0.0
 2 N  dz2             0.1       1.6       2.1       0.8       0.4       0.0
 2 N  dxz             0.2       0.1       0.2       0.1       0.0       0.0
 2 N  dyz             0.1       0.0       0.7       0.1       0.1       0.1
 2 N  dx2y2           0.0       4.0       1.9       0.4       0.1       0.3
 2 N  dxy             1.0       0.9       1.1       0.0       0.0       0.0
 2 N  f0              0.0       0.1       0.1       0.0       0.0       0.1
 2 N  f+2             0.1       0.1       0.1       0.0       0.0       0.1
 2 N  f-2             0.0       0.1       0.1       0.0       0.0       0.0
 2 N  f+3             0.2       0.1       0.2       0.0       0.0       0.0
 2 N  f-3             0.2       0.2       0.2       0.0       0.0       0.0
 3 N  s               0.0       2.5       5.2       9.4       8.1       2.7
 3 N  pz              3.5       1.8       1.7       1.0       0.2      12.3
 3 N  px              0.2       0.9       0.3       0.8       3.2       2.3
 3 N  py             11.8       2.0       2.5       0.4       0.6       0.2
 3 N  dz2             0.0       0.1       0.0       0.6       0.7       0.0
 3 N  dxz             0.8       0.7       1.1       0.2       0.0       0.3
 3 N  dx2y2           0.1       0.0       0.1       1.1       2.4       0.0
 3 N  dxy             2.7       0.9       1.4       0.2       0.5       0.0
 3 N  f-3             0.3       0.1       0.1       0.0       0.0       0.0
 4 N  s               0.0       2.5       5.2       9.2       8.2       2.7
 4 N  pz              3.5       1.8       1.7       1.0       0.2      12.3
 4 N  px              0.2       0.9       0.3       0.8       3.3       2.3
 4 N  py             11.8       2.0       2.5       0.4       0.6       0.2
 4 N  dz2             0.0       0.1       0.0       0.6       0.7       0.0
 4 N  dxz             0.8       0.7       1.1       0.2       0.0       0.3
 4 N  dx2y2           0.1       0.0       0.1       1.1       2.4       0.0
 4 N  dxy             2.7       0.9       1.4       0.2       0.5       0.0
 4 N  f-3             0.3       0.1       0.1       0.0       0.0       0.0
 5 N  s               0.1       5.3       5.1       1.1       3.4       2.5
 5 N  pz              0.8       2.5       1.9       0.5       3.9      12.4
 5 N  px              1.7       1.5       8.4      12.1       5.0       1.3
 5 N  py              7.5       7.8       0.1       3.6       0.3       0.2
 5 N  dz2             0.0       1.0       0.1       1.0       0.5       0.5
 5 N  dxz             0.5       0.4       0.5       3.0       0.3       1.1
 5 N  dyz             0.2       1.1       0.0       1.3       0.0       0.4
 5 N  dx2y2           0.7       3.3       0.2       0.0       0.3       0.2
 5 N  dxy             0.2       0.2       0.7       0.6       3.0       0.1
 5 N  f0              0.0       0.1       0.0       0.0       0.0       0.0
 5 N  f+1             0.0       0.0       0.1       0.0       0.2       0.0
 5 N  f+2             0.0       0.2       0.0       0.0       0.0       0.1
 5 N  f-2             0.1       0.0       0.0       0.0       0.1       0.0
 5 N  f-3             0.0       0.2       0.0       0.1       0.1       0.0

                     30        31        32        33        34        35   
                   0.25800   0.25983   0.27327   0.28638   0.28780   0.31045
                   0.00000   0.00000   0.00000   0.00000   0.00000   0.00000
                  --------  --------  --------  --------  --------  --------
 0 N  s               0.3       0.4       1.0       1.0       1.3       0.1
 0 N  pz              3.3       0.1       4.2       9.8       0.0       5.8
 0 N  px              1.0       5.2       0.5       0.8       0.4       1.2
 0 N  py              6.7       9.8       0.1       0.3      12.9       0.2
 0 N  dz2             0.1       0.3       0.0       0.0       0.0       0.1
 0 N  dxz             0.2       0.0       0.1       0.1       0.0       0.4
 0 N  dyz             0.2       0.0       0.2       0.0       0.0       2.9
 0 N  dx2y2           0.6       0.3       0.5       0.0       0.1       1.5
 0 N  dxy             0.1       0.1       0.0       0.1       0.2       0.1
 0 N  f0              0.0       0.0       0.0       0.1       0.0       0.0
 0 N  f+2             0.0       0.0       0.0       0.1       0.0       0.0
 0 N  f+3             0.0       0.1       0.0       0.0       0.1       0.0
 0 N  f-3             0.1       0.0       0.0       0.0       0.3       0.0
 1 N  s               3.4       0.2       0.9       0.4       0.9       6.4
 1 N  pz              0.2       0.1       1.4       2.0       1.2       3.2
 1 N  px              1.7       2.3       0.6       4.1       1.1       2.9
 1 N  py              9.1       5.2       1.2       0.2       0.4       7.7
 1 N  dz2             0.0       0.0       0.0       0.0       0.1       0.3
 1 N  dxz             0.6       0.1       0.7       0.2       0.0       3.3
 1 N  dyz             0.1       0.1       0.1       0.1       0.3       2.9
 1 N  dx2y2           0.2       0.1       0.2       0.0       0.1       1.0
 1 N  dxy             0.0       0.1       0.1       0.0       0.2       1.4
 2 N  s               0.3       0.4       1.0       1.0       1.3       0.1
 2 N  pz              3.3       0.1       4.2       9.8       0.0       5.8
 2 N  px              1.0       5.2       0.5       0.8       0.4       1.2
 2 N  py              6.7       9.8       0.1       0.3      12.9       0.2
 2 N  dz2             0.1       0.3       0.0       0.0       0.0       0.1
 2 N  dxz             0.2       0.0       0.1       0.1       0.0       0.4
 2 N  dyz             0.2       0.0       0.2       0.0       0.0       2.9
 2 N  dx2y2           0.6       0.3       0.5       0.0       0.1       1.5
 2 N  dxy             0.1       0.1       0.0       0.1       0.2       0.1
 2 N  f0              0.0       0.0       0.0       0.1       0.0       0.0
 2 N  f+2             0.0       0.0       0.0       0.1       0.0       0.0
 2 N  f+3             0.0       0.1       0.0       0.0       0.1       0.0
 2 N  f-3             0.1       0.0       0.0       0.0       0.3       0.0
 3 N  s               3.4       6.9       3.8       0.9       1.2       0.2
 3 N  pz              3.3       0.6       2.1      19.6       0.0       0.2
 3 N  px              8.0      11.1      27.9       8.5       2.6       7.1
 3 N  py              6.5       6.1       1.5       1.0      25.5       0.0
 3 N  dz2             0.1       0.0       0.8       0.1       0.2       0.0
 3 N  dxz             0.2       0.1       0.0       0.1       0.0       0.0
 3 N  dyz             0.0       0.0       0.0       0.0       0.0       0.2
 3 N  dx2y2           0.3       0.2       1.8       0.3       0.7       0.6
 3 N  dxy             0.1       0.2       0.1       0.0       0.1       0.0
 4 N  s               3.4       6.9       3.8       0.9       1.2       0.2
 4 N  pz              3.3       0.6       2.1      19.6       0.0       0.2
 4 N  px              8.0      11.1      27.8       8.5       2.6       7.1
 4 N  py              6.5       6.1       1.5       0.9      25.5       0.0
 4 N  dz2             0.1       0.0       0.8       0.1       0.2       0.0
 4 N  dxz             0.2       0.1       0.0       0.1       0.0       0.0
 4 N  dyz             0.0       0.0       0.0       0.0       0.0       0.2
 4 N  dx2y2           0.3       0.2       1.8       0.3       0.7       0.6
 4 N  dxy             0.1       0.2       0.1       0.0       0.1       0.0
 5 N  s               3.3       0.2       0.9       0.4       0.9       6.4
 5 N  pz              0.2       0.1       1.4       2.0       1.2       3.2
 5 N  px              1.7       2.3       0.6       4.1       1.1       2.9
 5 N  py              9.1       5.2       1.2       0.2       0.4       7.7
 5 N  dz2             0.0       0.0       0.0       0.0       0.1       0.3
 5 N  dxz             0.6       0.1       0.7       0.2       0.0       3.3
 5 N  dyz             0.1       0.1       0.1       0.1       0.3       2.9
 5 N  dx2y2           0.2       0.1       0.2       0.0       0.1       1.0
 5 N  dxy             0.0       0.1       0.1       0.0       0.2       1.4

                     36        37        38        39        40        41   
                   0.32618   0.34993   0.36107   0.36917   0.38272   0.44194
                   0.00000   0.00000   0.00000   0.00000   0.00000   0.00000
                  --------  --------  --------  --------  --------  --------
 0 N  s               0.3       0.0       0.7       0.7       0.1       1.2
 0 N  pz              1.1       0.3       0.5       2.1       1.6      10.7
 0 N  px             10.0       1.7       2.1       1.3       0.6       0.3
 0 N  py              0.2       0.1       0.3       4.9       0.4       0.5
 0 N  dz2             0.3       0.7       0.1       1.1       0.2       0.0
 0 N  dxz             0.0       0.3       0.1       0.0       0.1       0.2
 0 N  dyz             0.2       0.2       0.0       0.0       0.1       0.2
 0 N  dx2y2           0.4       0.1       0.2       0.3       0.1       0.0
 0 N  dxy             0.0       0.0       0.1       0.8       0.0       0.0
 0 N  f+2             0.0       0.0       0.0       0.0       0.1       0.1
 0 N  f-3             0.0       0.0       0.3       0.2       0.0       0.0
 1 N  s               6.2       0.6       0.0       0.2       3.7       0.4
 1 N  pz              2.3      14.7       0.9      23.2       4.7       9.9
 1 N  px              3.8       3.5       0.1       2.9       2.6       4.6
 1 N  py              2.9       5.0      16.3       2.0       2.5       0.3
 1 N  dz2             0.1       0.0       0.0       1.9       1.0       0.0
 1 N  dxz             0.7       2.8       0.0       0.0       1.4       1.5
 1 N  dyz             0.0       0.8       0.3       0.0       0.8       0.3
 1 N  dx2y2           0.8       1.0       0.2       1.9       0.0       0.0
 1 N  dxy             0.0       0.3       0.0       0.2       0.4       0.1
 1 N  f+2             0.0       0.1       0.0       0.0       0.1       0.1
 1 N  f+3             0.0       0.0       0.0       0.1       0.0       0.0
 2 N  s               0.3       0.0       0.7       0.7       0.1       1.2
 2 N  pz              1.1       0.3       0.5       2.1       1.6      10.7
 2 N  px             10.0       1.7       2.1       1.3       0.6       0.4
 2 N  py              0.2       0.1       0.3       4.9       0.4       0.5
 2 N  dz2             0.3       0.7       0.1       1.1       0.2       0.0
 2 N  dxz             0.0       0.3       0.1       0.0       0.1       0.2
 2 N  dyz             0.2       0.2       0.0       0.0       0.1       0.2
 2 N  dx2y2           0.4       0.1       0.2       0.3       0.1       0.0
 2 N  dxy             0.0       0.0       0.1       0.8       0.0       0.0
 2 N  f+2             0.0       0.0       0.0       0.0       0.1       0.1
 2 N  f-3             0.0       0.0       0.3       0.2       0.0       0.0
 3 N  s               1.6       5.6       2.1       0.2       1.9       0.1
 3 N  pz              4.5       5.4       0.0       0.5      24.1      18.1
[...]
Rotational constants in MHz :         29357.440957          1672.638060          1630.356347 

Dipole components along the rotational axes: 
x,y,z [a.u.] :    -0.000011     0.363799     0.000006 
x,y,z [Debye]:    -0.000027     0.924704     0.000016 

 

Dipole moment calculation done in   0.0 sec 

-----------
SCF HESSIAN
-----------

Occupied/Occupied contributions to the Hessian:
   => Occupied/Occupied contributions              ... done (  0.0 sec)
Perturbed density contributions to the Hessian:
   => Perturbed density contributions              ... done (  0.0 sec)
Explicit contributions to the Hessian:
   => Nuclear repulsion Hessian                    ... done (  0.0 sec)
   => HCore and overlap Hessian                    ... done (  0.4 sec)
   => RI-J Hessian                                 ... done (  1.5 sec)
   => COSX Hessian                                 ... done ( 67.5 sec)
   => XC-Hessian                                   ... done (  4.9 sec)
   => Explicit contributions done
Dipole derivatives                                 ... done (  0.0 sec)
Mass weighting the Hessian           ... done
Calculating normal modes             ... done
Scaling frequencies                  ... done

-----------------------
VIBRATIONAL FREQUENCIES
-----------------------

Scaling factor for frequencies =  1.000000000  (already applied!)

     0:       0.00 cm**-1
     1:       0.00 cm**-1
     2:       0.00 cm**-1
     3:       0.00 cm**-1
     4:       0.00 cm**-1
     5:       0.00 cm**-1
     6:   -1062.98 cm**-1  ***imaginary mode***
     7:      63.15 cm**-1
     8:     139.68 cm**-1
     9:     169.70 cm**-1
    10:     284.26 cm**-1
    11:     367.40 cm**-1
    12:     490.31 cm**-1
    13:     659.28 cm**-1
    14:     732.77 cm**-1
    15:    1179.28 cm**-1
    16:    2141.80 cm**-1
    17:    2163.68 cm**-1


------------
NORMAL MODES
------------

These modes are the Cartesian displacements weighted by the diagonal matrix
M(i,i)=1/sqrt(m[i]) where m[i] is the mass of the displaced atom
Thus, these vectors are normalized but *not* orthogonal

                  0          1          2          3          4          5    
      0       0.000000   0.000000   0.000000   0.000000   0.000000   0.000000
      1       0.000000   0.000000   0.000000   0.000000   0.000000   0.000000
      2       0.000000   0.000000   0.000000   0.000000   0.000000   0.000000
      3       0.000000   0.000000   0.000000   0.000000   0.000000   0.000000
      4       0.000000   0.000000   0.000000   0.000000   0.000000   0.000000
      5       0.000000   0.000000   0.000000   0.000000   0.000000   0.000000
      6       0.000000   0.000000   0.000000   0.000000   0.000000   0.000000
      7       0.000000   0.000000   0.000000   0.000000   0.000000   0.000000
      8       0.000000   0.000000   0.000000   0.000000   0.000000   0.000000
      9       0.000000   0.000000   0.000000   0.000000   0.000000   0.000000
     10       0.000000   0.000000   0.000000   0.000000   0.000000   0.000000
     11       0.000000   0.000000   0.000000   0.000000   0.000000   0.000000
     12       0.000000   0.000000   0.000000   0.000000   0.000000   0.000000
     13       0.000000   0.000000   0.000000   0.000000   0.000000   0.000000
     14       0.000000   0.000000   0.000000   0.000000   0.000000   0.000000
     15       0.000000   0.000000   0.000000   0.000000   0.000000   0.000000
     16       0.000000   0.000000   0.000000   0.000000   0.000000   0.000000
     17       0.000000   0.000000   0.000000   0.000000   0.000000   0.000000
                  6          7          8          9         10         11    
      0      -0.247273  -0.126556   0.152650  -0.006841   0.063783   0.169742
      1      -0.347172  -0.057017   0.395784   0.241248  -0.030252  -0.386274
      2       0.187736  -0.086335  -0.294312   0.314740  -0.429633  -0.142860
      3      -0.405238  -0.089879  -0.352028  -0.017155  -0.239582  -0.191574
      4       0.294464  -0.418701   0.110139   0.369720   0.121937   0.335603
      5      -0.025246   0.104358   0.119686   0.117025   0.313730   0.177837
      6       0.247265   0.126541   0.152651  -0.006846  -0.063788   0.169733
      7      -0.347153  -0.056975  -0.395761  -0.241291  -0.030322   0.386277
      8      -0.187780   0.086348  -0.294355   0.314706   0.429627  -0.142800
      9      -0.161608  -0.211359   0.199363   0.023999   0.102162   0.021847
     10       0.052708   0.475686  -0.113099  -0.070989  -0.091699   0.344862
     11      -0.051216   0.089828   0.174652  -0.431726   0.347694  -0.034959
     12       0.161609   0.211345   0.199385   0.023999  -0.102166   0.021828
     13       0.052700   0.475676   0.113131   0.071065  -0.091641  -0.344856
     14       0.051223  -0.089770   0.174659  -0.431717  -0.347704  -0.035010
     15       0.405245   0.089908  -0.352021  -0.017156   0.239590  -0.191576
     16       0.294453  -0.418669  -0.110194  -0.369752   0.121977  -0.335612
     17       0.025284  -0.104429   0.119670   0.116971  -0.313713   0.177791
                 12         13         14         15         16         17    
      0      -0.436856  -0.002930  -0.196618  -0.004990  -0.477256  -0.490916
      1       0.249191   0.327322   0.072384  -0.195005  -0.037117  -0.071009
      2      -0.118386   0.326035  -0.314820   0.157450  -0.019793  -0.019212
      3       0.116205  -0.328787   0.399195   0.363355   0.095391  -0.004970
      4       0.011428  -0.186517   0.305280   0.142242  -0.036040   0.031474
      5       0.007110   0.326557   0.196149   0.520910   0.011156   0.018512
      6       0.436866   0.002931  -0.196621   0.004987   0.477310  -0.490862
      7       0.249169   0.327365  -0.072353  -0.194987  -0.037136   0.071015
      8       0.118413  -0.326014  -0.314823  -0.157476   0.019789  -0.019198
      9      -0.382988   0.096004  -0.202567  -0.090670   0.504508   0.495893
     10      -0.260598  -0.140833  -0.104171   0.052720   0.073155   0.079848
     11       0.069015  -0.089237   0.118678  -0.050488  -0.000781   0.000702
     12       0.382987  -0.096011  -0.202561   0.090674  -0.504561   0.495836
     13      -0.260603  -0.140843   0.104167   0.052712   0.073173  -0.079849
     14      -0.069054   0.089228   0.118693   0.050495   0.000792   0.000690
     15      -0.116214   0.328793   0.399172  -0.363355  -0.095391  -0.004982
     16       0.011413  -0.186494  -0.305307   0.142318  -0.036034  -0.031481
     17      -0.007098  -0.326570   0.196124  -0.520891  -0.011163   0.018507


-----------
IR SPECTRUM
-----------

 Mode   freq       eps      Int      T**2         TX        TY        TZ
       cm**-1   L/(mol*cm) km/mol    a.u.
----------------------------------------------------------------------------
  7:     63.15   0.000183    0.93  0.000906  ( 0.000010  0.030094  0.000007)
  8:    139.68   0.007529   38.05  0.016821  (-0.114468  0.000006 -0.060980)
  9:    169.70   0.000184    0.93  0.000337  (-0.007525 -0.000000  0.016758)
 10:    284.26   0.000192    0.97  0.000211  (-0.000002 -0.014513 -0.000001)
 11:    367.40   0.009703   49.03  0.008242  ( 0.089861 -0.000000 -0.012907)
 12:    490.31   0.000011    0.06  0.000007  ( 0.000001 -0.002676 -0.000000)
 13:    659.28   0.001081    5.46  0.000512  ( 0.000001  0.022624  0.000001)
 14:    732.77   0.001345    6.80  0.000573  ( 0.023431 -0.000001  0.004881)
 15:   1179.28   0.001306    6.60  0.000345  (-0.000000 -0.018587 -0.000001)
 16:   2141.80   0.010352   52.32  0.001508  ( 0.000005 -0.038837 -0.000004)
 17:   2163.68   0.081004  409.36  0.011683  (-0.105576 -0.000003  0.023168)

* The epsilon (eps) is given for a Dirac delta lineshape.
** The dipole moment derivative (T) already includes vibrational overlap.

The first frequency considered to be a vibration is 7
The total number of vibrations considered is 11


--------------------------
THERMOCHEMISTRY AT 298.15K
--------------------------

Temperature         ...   298.15 K
Pressure            ...     1.00 atm
Total Mass          ...    84.04 AMU
Quasi RRHO          ...     True
Cut-Off Frequency   ...     1.00 cm^-1

Throughout the following assumptions are being made:
  (1) The electronic state is orbitally nondegenerate
  (2) There are no thermally accessible electronically excited states
  (3) Hindered rotations indicated by low frequency modes are not
      treated as such but are treated as vibrations and this may
      cause some error
  (4) All equations used are the standard statistical mechanics
      equations for an ideal gas
  (5) All vibrations are strictly harmonic

freq.      63.15  E(vib)   ...       0.51 
freq.     139.68  E(vib)   ...       0.42 
freq.     169.70  E(vib)   ...       0.38 
freq.     284.26  E(vib)   ...       0.28 
freq.     367.40  E(vib)   ...       0.21 
freq.     490.31  E(vib)   ...       0.15 
freq.     659.28  E(vib)   ...       0.08 
freq.     732.77  E(vib)   ...       0.06 
freq.    1179.28  E(vib)   ...       0.01 
freq.    2141.80  E(vib)   ...       0.00 
freq.    2163.68  E(vib)   ...       0.00 

------------
INNER ENERGY
------------

The inner energy is: U= E(el) + E(ZPE) + E(vib) + E(rot) + E(trans)
    E(el)   - is the total energy from the electronic structure calculation
              = E(kin-el) + E(nuc-el) + E(el-el) + E(nuc-nuc)
    E(ZPE)  - the the zero temperature vibrational energy from the frequency calculation
    E(vib)  - the the finite temperature correction to E(ZPE) due to population
              of excited vibrational states
    E(rot)  - is the rotational thermal energy
    E(trans)- is the translational thermal energy

Summary of contributions to the inner energy U:
Electronic energy                ...   -328.27334013 Eh
Zero point energy                ...      0.01911677 Eh      12.00 kcal/mol
Thermal vibrational correction   ...      0.00334214 Eh       2.10 kcal/mol
Thermal rotational correction    ...      0.00141627 Eh       0.89 kcal/mol
Thermal translational correction ...      0.00141627 Eh       0.89 kcal/mol
-----------------------------------------------------------------------
Total thermal energy                   -328.24804867 Eh


Summary of corrections to the electronic energy:
(perhaps to be used in another calculation)
Total thermal correction                  0.00617468 Eh       3.87 kcal/mol
Non-thermal (ZPE) correction              0.01911677 Eh      12.00 kcal/mol
-----------------------------------------------------------------------
Total correction                          0.02529145 Eh      15.87 kcal/mol


--------
ENTHALPY
--------

The enthalpy is H = U + kB*T
                kB is Boltzmann's constant
Total thermal energy              ...   -328.24804867 Eh 
Thermal Enthalpy correction       ...      0.00094421 Eh       0.59 kcal/mol
-----------------------------------------------------------------------
Total Enthalpy                    ...   -328.24710446 Eh


Note: Rotational entropy computed according to Herzberg 
Infrared and Raman Spectra, Chapter V,1, Van Nostrand Reinhold, 1945 
Point Group:  C2, Symmetry Number:   2  
Rotational constants in cm-1:     0.979260     0.055793     0.054383 

Vibrational entropy computed according to the QRRHO of S. Grimme
Chem.Eur.J. 2012 18 9955 using a reference frequency of 100.0 cm-1


-------
ENTROPY
-------

The entropy contributions are T*S = T*(S(el)+S(vib)+S(rot)+S(trans))
     S(el)   - electronic entropy
     S(vib)  - vibrational entropy
     S(rot)  - rotational entropy
     S(trans)- translational entropy
The entropies will be listed as multiplied by the temperature to get
units of energy

Electronic entropy                ...      0.00000000 Eh      0.00 kcal/mol
Vibrational entropy               ...      0.00598407 Eh      3.76 kcal/mol
Rotational entropy                ...      0.01160334 Eh      7.28 kcal/mol
Translational entropy             ...      0.01862502 Eh     11.69 kcal/mol
-----------------------------------------------------------------------
Final entropy term                ...      0.03621242 Eh     22.72 kcal/mol

In case the symmetry of your molecule has not been determined correctly
or in case you have a reason to use a different symmetry number we print 
out the resulting rotational entropy values for sn=1,12:

 non-linear molecules -----------------------------------
|  sn= 1 | S(rot)=       0.01225779 Eh      7.69 kcal/mol|
|  sn= 2 | S(rot)=       0.01160334 Eh      7.28 kcal/mol|
|  sn= 3 | S(rot)=       0.01122051 Eh      7.04 kcal/mol|
|  sn= 4 | S(rot)=       0.01094888 Eh      6.87 kcal/mol|
|  sn= 5 | S(rot)=       0.01073819 Eh      6.74 kcal/mol|
|  sn= 6 | S(rot)=       0.01056605 Eh      6.63 kcal/mol|
|  sn= 7 | S(rot)=       0.01042050 Eh      6.54 kcal/mol|
|  sn= 8 | S(rot)=       0.01029443 Eh      6.46 kcal/mol|
|  sn= 9 | S(rot)=       0.01018322 Eh      6.39 kcal/mol|
|  sn=10 | S(rot)=       0.01008374 Eh      6.33 kcal/mol|
|  sn=11 | S(rot)=       0.00999375 Eh      6.27 kcal/mol|
|  sn=12 | S(rot)=       0.00991159 Eh      6.22 kcal/mol|
 linear molecules ---------------------------------------
|  Dinfh | S(rot)=       0.00807498 Eh      5.07 kcal/mol|
|  Cinfv | S(rot)=       0.00872944 Eh      5.48 kcal/mol|
 --------------------------------------------------------


-------------------
GIBBS FREE ENERGY
-------------------

The Gibbs free energy is G = H - T*S

Total enthalpy                    ...   -328.24710446 Eh 
Total entropy correction          ...     -0.03621242 Eh    -22.72 kcal/mol
-----------------------------------------------------------------------
Final Gibbs free energy         ...   -328.28331689 Eh

For completeness - the Gibbs free energy minus the electronic energy
G-E(el)                           ...     -0.00997676 Eh     -6.26 kcal/mol


Maximum memory used throughout the entire PROP-calculation: 29.4 MB

--------------------------------
SUGGESTED CITATIONS FOR THIS RUN
--------------------------------

Below you find a list of papers that are relevant to this ORCA run
We neither can nor want to force you to cite these papers, but we appreciate if you do
You receive ORCA, which is the product of decades of hard work by many enthusiastic individuals, for free
The only thing we kindly ask in return is that you cite our papers,
We deeply appreciate it, if you show your appreciation for ORCA by not just citing the generic ORCA reference.

Please note that relegating all ORCA citations to the supporting information does *not* help us.
SI sections are not indexed - citations you put there will not count into any citation statistics
But we need these citations in order to attract the funding resources that allow us to do what we are doing

Therefore, if you are a happy ORCA user, please consider citing a few of the papers listed below in the main body of your paper

In addition to the list printed below, the program has created the file orca.bibtex that contains the list in bibtex format
You can import this file easily into all common literature databanks and citation aid programs

It goes without saying that in many instances, there are alternative algorithms to achieve similar
results as the ones you have gotten from ORCA. It is, of course, also the case that in some instances
ORCA just re-implements algorithms worked out by others. We are fully aware of that and we are also
fully appreciative of our colleagues work. Hence this citation list should not be read as indicating
that the listed papers, which are focused on our own work, are the only ones worth citing. It simply
meant to make it easier for users to cite ORCA specific papers. It is not a substitute for doing your
own literature research and citing the relevant literature in a scientifically appropriate manner.

List of essential papers. We consider these as the minimum necessary citations

  1. Neese, F.
     Software update: the ORCA program system, version 6.0
     WIRES Comput. Molec. Sci. 2025 15(1), e70019
     doi.org/10.1002/wcms.70019

List of papers to cite with high priority. The work reported in these papers was absolutely
necessary for this run to complete.
Our perspective: the developers of density functionals and basis sets usually get cited in chemistry papers
Good! But without the algorithms to do something with them, the functionals or basis sets would not do anything.
Hence, in our opinion, the algorithm design and method developments papers are equally worthy of getting cited

  1. Neese, F.
     An improvement of the resolution of the identity approximation for the formation of the Coulomb matrix
     J. Comp. Chem. 2003 24(14), 1740-1747
     doi.org/10.1002/jcc.10318
  2. Neese, F.; Wennmohs, F.; Hansen, A.; Becker, U.
     Efficient, approximate and parallel Hartree-Fock and hybrid DFT calculations. A 'chain-of-spheres' algorithm for the Hartree-Fock exchange
     Chem. Phys. 2009 356(1-3), 98-109
     doi.org/10.1016/j.chemphys.2008.10.036
  3. Bykov, D.; Petrenko, T.; Izsak, R.; Kossmann, S.; Becker, U.; Valeev, E.; Neese, F.
     Efficient implementation of the analytic second derivatives of Hartree-Fock and hybrid DFT energies: a detailed analysis of different approximations
     Molec. Phys. 2015 113 , 1961-1977
     doi.org/10.1080/00268976.2015.1025114
  4. Helmich-Paris, B.; de Souza, B.; Neese, F.; Izsák, R.
     An improved chain of spheres for exchange algorithm
     J. Chem. Phys. 2021 155(10), 104109
     doi.org/10.1063/5.0058766
  5. Neese, F.
     The SHARK Integral Generation and Digestion System
     J. Comp. Chem. 2022 44(3), 381
     doi.org/10.1002/jcc.26942

List of suggested additional citations. These are papers that are important in the 'surrounding' of 
of this run, or papers that preceded the highly important papers. If you like your results we are grateful for a citation.

  1. Izsak, R.; Neese, F.
     An overlap fitted chain of spheres exchange method
     J. Chem. Phys. 2011 135 , 144105
     doi.org/10.1063/1.3646921
  2. Izsak, R.; Hansen, A.; Neese, F.
     The resolution of identity and chain of spheres approximations for the LPNO-CCSD singles Fock term
     Molec. Phys. 2012 110 , 2413-2417
     doi.org/10.1080/00268976.2012.687466
  3. Neese, F.
     The ORCA program system
     WIRES Comput. Molec. Sci. 2012 2(1), 73-78
     doi.org/10.1002/wcms.81
  4. Izsak, R.; Neese, F.; Klopper, W.
     Robust fitting techniques in the chain of spheres approximation to the Fock exchange: The role of the complementary space
     J. Chem. Phys. 2013 139 , 
     doi.org/10.1063/1.4819264
  5. Neese, F.
     Software update: the ORCA program system, version 4.0
     WIRES Comput. Molec. Sci. 2018 8(1), 1-6
     doi.org/10.1002/wcms.1327
  6. Neese, F.; Wennmohs, F.; Becker, U.; Riplinger, C.
     The ORCA quantum chemistry program package
     J. Chem. Phys. 2020 152(22), 224108
     doi.org/10.1063/5.0004608
  7. Neese, F.
     Software update: The ORCA program system—Version 5.0
     WIRES Comput. Molec. Sci. 2022 12(1), e1606
     doi.org/10.1002/wcms.1606

List of optional additional citations

  1. Neese, F.
     Approximate second-order SCF convergence for spin unrestricted wavefunctions
     Chem. Phys. Lett. 2000 325(1-3), 93-98
     doi.org/10.1016/s0009-2614(00)00662-x

Timings for individual modules:

Sum of individual times          ...      132.851 sec (=   2.214 min)
Startup calculation              ...        1.847 sec (=   0.031 min)   1.4 %
SCF iterations                   ...       20.831 sec (=   0.347 min)  15.7 %
Property integrals               ...       14.851 sec (=   0.248 min)  11.2 %
SCF Response                     ...       14.225 sec (=   0.237 min)  10.7 %
Property calculations            ...       74.686 sec (=   1.245 min)  56.2 %
SCF Gradient evaluation          ...        6.400 sec (=   0.107 min)   4.8 %
Geometry relaxation              ...        0.012 sec (=   0.000 min)   0.0 %
                             ****ORCA TERMINATED NORMALLY****
TOTAL RUN TIME: 0 days 0 hours 4 minutes 1 seconds 14 msec
